# vtk DataFile Version 1.0
ECM-CELL DIFFUSION-MECHANICS
ASCII

DATASET UNSTRUCTURED_GRID
POINTS     3523 float
1.50000000E+001 3.00000000E+001 0.00000000E+000
1.45000000E+001 3.00000000E+001 0.00000000E+000
1.46430000E+001 2.96430000E+001 0.00000000E+000
1.44130000E+001 2.97570000E+001 0.00000000E+000
1.40970000E+001 2.96270000E+001 0.00000000E+000
1.40000000E+001 3.00000000E+001 0.00000000E+000
1.42860000E+001 2.92860000E+001 0.00000000E+000
1.36890000E+001 2.94560000E+001 0.00000000E+000
1.35000000E+001 3.00000000E+001 0.00000000E+000
1.39290000E+001 2.89290000E+001 0.00000000E+000
1.32310000E+001 2.92690000E+001 0.00000000E+000
1.30000000E+001 3.00000000E+001 0.00000000E+000
1.35710000E+001 2.85710000E+001 0.00000000E+000
1.25000000E+001 3.00000000E+001 0.00000000E+000
1.32140000E+001 2.82140000E+001 0.00000000E+000
1.26590000E+001 2.90240000E+001 0.00000000E+000
1.20000000E+001 3.00000000E+001 0.00000000E+000
1.28570000E+001 2.78570000E+001 0.00000000E+000
1.19850000E+001 2.92710000E+001 0.00000000E+000
1.23430000E+001 2.83590000E+001 0.00000000E+000
1.18140000E+001 2.86650000E+001 0.00000000E+000
1.15000000E+001 3.00000000E+001 0.00000000E+000
1.25000000E+001 2.75000000E+001 0.00000000E+000
1.14410000E+001 2.93860000E+001 0.00000000E+000
1.20460000E+001 2.78820000E+001 0.00000000E+000
1.13260000E+001 2.88400000E+001 0.00000000E+000
1.15980000E+001 2.81820000E+001 0.00000000E+000
1.10000000E+001 3.00000000E+001 0.00000000E+000
1.21430000E+001 2.71430000E+001 0.00000000E+000
1.09410000E+001 2.94480000E+001 0.00000000E+000
1.17410000E+001 2.74870000E+001 0.00000000E+000
1.11840000E+001 2.83880000E+001 0.00000000E+000
1.13560000E+001 2.77850000E+001 0.00000000E+000
1.08680000E+001 2.89400000E+001 0.00000000E+000
1.10170000E+001 2.80320000E+001 0.00000000E+000
1.08020000E+001 2.85070000E+001 0.00000000E+000
1.05000000E+001 3.00000000E+001 0.00000000E+000
1.17860000E+001 2.67860000E+001 0.00000000E+000
1.04510000E+001 2.94790000E+001 0.00000000E+000
1.14230000E+001 2.71240000E+001 0.00000000E+000
1.07740000E+001 2.82080000E+001 0.00000000E+000
1.10740000E+001 2.74450000E+001 0.00000000E+000
1.04010000E+001 2.89800000E+001 0.00000000E+000
1.07540000E+001 2.77590000E+001 0.00000000E+000
1.03850000E+001 2.85050000E+001 0.00000000E+000
1.05040000E+001 2.80860000E+001 0.00000000E+000
1.00000000E+001 3.00000000E+001 0.00000000E+000
1.14290000E+001 2.64290000E+001 0.00000000E+000
1.10930000E+001 2.67760000E+001 0.00000000E+000
9.95600000E+000 2.95040000E+001 0.00000000E+000
1.07560000E+001 2.71170000E+001 0.00000000E+000
9.90680000E+000 2.90060000E+001 0.00000000E+000
1.04190000E+001 2.74770000E+001 0.00000000E+000
1.00960000E+001 2.78880000E+001 0.00000000E+000
9.83430000E+000 2.84540000E+001 0.00000000E+000
9.50000000E+000 3.00000000E+001 0.00000000E+000
1.07510000E+001 2.64260000E+001 0.00000000E+000
9.46600000E+000 2.95320000E+001 0.00000000E+000
1.10710000E+001 2.60710000E+001 0.00000000E+000
1.04190000E+001 2.67810000E+001 0.00000000E+000
9.45390000E+000 2.90860000E+001 0.00000000E+000
9.45200000E+000 2.87260000E+001 0.00000000E+000
1.00690000E+001 2.71440000E+001 0.00000000E+000
9.60960000E+000 2.75440000E+001 0.00000000E+000
9.33090000E+000 2.81660000E+001 0.00000000E+000
9.00000000E+000 3.00000000E+001 0.00000000E+000
8.98720000E+000 2.95360000E+001 0.00000000E+000
1.04050000E+001 2.60780000E+001 0.00000000E+000
1.01000000E+001 2.64390000E+001 0.00000000E+000
9.00990000E+000 2.90790000E+001 0.00000000E+000
1.07140000E+001 2.57140000E+001 0.00000000E+000
9.09180000E+000 2.86350000E+001 0.00000000E+000
9.78880000E+000 2.67940000E+001 0.00000000E+000
9.52540000E+000 2.70910000E+001 0.00000000E+000
8.50000000E+000 3.00000000E+001 0.00000000E+000
8.79630000E+000 2.80290000E+001 0.00000000E+000
9.00700000E+000 2.74510000E+001 0.00000000E+000
8.50460000E+000 2.95270000E+001 0.00000000E+000
9.75830000E+000 2.61140000E+001 0.00000000E+000
1.00570000E+001 2.57350000E+001 0.00000000E+000
8.52940000E+000 2.90520000E+001 0.00000000E+000
8.61430000E+000 2.85610000E+001 0.00000000E+000
9.44690000E+000 2.65120000E+001 0.00000000E+000
1.03570000E+001 2.53570000E+001 0.00000000E+000
9.17790000E+000 2.69350000E+001 0.00000000E+000
8.00000000E+000 3.00000000E+001 0.00000000E+000
9.39460000E+000 2.57840000E+001 0.00000000E+000
8.00180000E+000 2.95190000E+001 0.00000000E+000
9.70080000E+000 2.53890000E+001 0.00000000E+000
8.02490000E+000 2.90290000E+001 0.00000000E+000
9.04760000E+000 2.62150000E+001 0.00000000E+000
8.09800000E+000 2.85060000E+001 0.00000000E+000
1.00000000E+001 2.50000000E+001 0.00000000E+000
8.23290000E+000 2.79380000E+001 0.00000000E+000
8.43660000E+000 2.73180000E+001 0.00000000E+000
8.68990000E+000 2.67170000E+001 0.00000000E+000
7.50000000E+000 3.00000000E+001 0.00000000E+000
7.50220000E+000 2.95110000E+001 0.00000000E+000
9.02790000E+000 2.54360000E+001 0.00000000E+000
9.34370000E+000 2.50360000E+001 0.00000000E+000
7.51030000E+000 2.90160000E+001 0.00000000E+000
9.64290000E+000 2.46430000E+001 0.00000000E+000
7.57050000E+000 2.84680000E+001 0.00000000E+000
8.63060000E+000 2.58680000E+001 0.00000000E+000
7.66190000E+000 2.78700000E+001 0.00000000E+000
7.82400000E+000 2.71750000E+001 0.00000000E+000
8.09750000E+000 2.64010000E+001 0.00000000E+000
7.00000000E+000 3.00000000E+001 0.00000000E+000
8.68910000E+000 2.50670000E+001 0.00000000E+000
6.99660000E+000 2.95090000E+001 0.00000000E+000
8.99350000E+000 2.46780000E+001 0.00000000E+000
7.00030000E+000 2.90070000E+001 0.00000000E+000
9.28570000E+000 2.42860000E+001 0.00000000E+000
8.31820000E+000 2.54440000E+001 0.00000000E+000
7.03140000E+000 2.84560000E+001 0.00000000E+000
7.06910000E+000 2.78530000E+001 0.00000000E+000
7.88760000E+000 2.58010000E+001 0.00000000E+000
7.44390000E+000 2.64560000E+001 0.00000000E+000
7.12200000E+000 2.71070000E+001 0.00000000E+000
8.35570000E+000 2.47080000E+001 0.00000000E+000
6.50000000E+000 3.00000000E+001 0.00000000E+000
6.49700000E+000 2.95040000E+001 0.00000000E+000
8.64510000E+000 2.43220000E+001 0.00000000E+000
7.46970000E+000 2.59860000E+001 0.00000000E+000
8.01910000E+000 2.50640000E+001 0.00000000E+000
6.49530000E+000 2.90000000E+001 0.00000000E+000
8.92860000E+000 2.39290000E+001 0.00000000E+000
6.49660000E+000 2.84750000E+001 0.00000000E+000
7.65320000E+000 2.53870000E+001 0.00000000E+000
7.07370000E+000 2.63410000E+001 0.00000000E+000
7.20500000E+000 2.60610000E+001 0.00000000E+000
6.49410000E+000 2.79230000E+001 0.00000000E+000
6.81830000E+000 2.66760000E+001 0.00000000E+000
7.30570000E+000 2.56520000E+001 0.00000000E+000
6.48650000E+000 2.73220000E+001 0.00000000E+000
7.02080000E+000 2.58920000E+001 0.00000000E+000
8.01090000E+000 2.43610000E+001 0.00000000E+000
6.00000000E+000 3.00000000E+001 0.00000000E+000
7.69550000E+000 2.47200000E+001 0.00000000E+000
5.99590000E+000 2.95060000E+001 0.00000000E+000
8.29240000E+000 2.39690000E+001 0.00000000E+000
6.82760000E+000 2.61710000E+001 0.00000000E+000
6.67550000E+000 2.64200000E+001 0.00000000E+000
5.98740000E+000 2.90020000E+001 0.00000000E+000
8.57140000E+000 2.35710000E+001 0.00000000E+000
7.35790000E+000 2.50530000E+001 0.00000000E+000
5.97510000E+000 2.84930000E+001 0.00000000E+000
6.39900000E+000 2.68210000E+001 0.00000000E+000
7.02620000E+000 2.53680000E+001 0.00000000E+000
5.95590000E+000 2.79730000E+001 0.00000000E+000
6.74500000E+000 2.56840000E+001 0.00000000E+000
6.38070000E+000 2.64140000E+001 0.00000000E+000
6.52150000E+000 2.60360000E+001 0.00000000E+000
5.93640000E+000 2.74210000E+001 0.00000000E+000
7.65210000E+000 2.40160000E+001 0.00000000E+000
7.34550000E+000 2.43870000E+001 0.00000000E+000
5.50000000E+000 3.00000000E+001 0.00000000E+000
5.49380000E+000 2.95040000E+001 0.00000000E+000
7.93410000E+000 2.36170000E+001 0.00000000E+000
7.02100000E+000 2.47380000E+001 0.00000000E+000
5.48310000E+000 2.90090000E+001 0.00000000E+000
8.21430000E+000 2.32140000E+001 0.00000000E+000
5.91060000E+000 2.68710000E+001 0.00000000E+000
6.69610000E+000 2.50840000E+001 0.00000000E+000
5.46270000E+000 2.85030000E+001 0.00000000E+000
6.39490000E+000 2.54530000E+001 0.00000000E+000
5.43750000E+000 2.79950000E+001 0.00000000E+000
5.93970000E+000 2.63410000E+001 0.00000000E+000
6.13800000E+000 2.58600000E+001 0.00000000E+000
5.40950000E+000 2.74510000E+001 0.00000000E+000
7.28300000E+000 2.36660000E+001 0.00000000E+000
6.97560000E+000 2.40460000E+001 0.00000000E+000
5.00000000E+000 3.00000000E+001 0.00000000E+000
4.99610000E+000 2.95030000E+001 0.00000000E+000
7.57160000E+000 2.32640000E+001 0.00000000E+000
6.65170000E+000 2.44040000E+001 0.00000000E+000
4.97840000E+000 2.90080000E+001 0.00000000E+000
7.85710000E+000 2.28570000E+001 0.00000000E+000
5.37330000E+000 2.68640000E+001 0.00000000E+000
6.32840000E+000 2.47720000E+001 0.00000000E+000
4.95520000E+000 2.85150000E+001 0.00000000E+000
6.00970000E+000 2.51670000E+001 0.00000000E+000
4.92710000E+000 2.80110000E+001 0.00000000E+000
5.69600000E+000 2.56100000E+001 0.00000000E+000
5.33630000E+000 2.61700000E+001 0.00000000E+000
4.88730000E+000 2.74850000E+001 0.00000000E+000
4.50000000E+000 3.00000000E+001 0.00000000E+000
6.90670000E+000 2.33060000E+001 0.00000000E+000
6.59620000E+000 2.36850000E+001 0.00000000E+000
4.49350000E+000 2.95030000E+001 0.00000000E+000
7.20630000E+000 2.29080000E+001 0.00000000E+000
6.27850000E+000 2.40560000E+001 0.00000000E+000
4.47470000E+000 2.90110000E+001 0.00000000E+000
7.50000000E+000 2.25000000E+001 0.00000000E+000
5.95630000E+000 2.44340000E+001 0.00000000E+000
4.82890000E+000 2.69450000E+001 0.00000000E+000
4.44990000E+000 2.85200000E+001 0.00000000E+000
5.63080000E+000 2.48190000E+001 0.00000000E+000
4.42020000E+000 2.80250000E+001 0.00000000E+000
5.30130000E+000 2.52190000E+001 0.00000000E+000
4.72400000E+000 2.63750000E+001 0.00000000E+000
4.37580000E+000 2.75190000E+001 0.00000000E+000
4.93870000E+000 2.56040000E+001 0.00000000E+000
4.00000000E+000 3.00000000E+001 0.00000000E+000
3.99230000E+000 2.95050000E+001 0.00000000E+000
6.53270000E+000 2.29330000E+001 0.00000000E+000
[...]
POINT_DATA     3523
SCALARS Ux float
LOOKUP_TABLE default
1.00000000E+000
1.05678913E+000
1.00000000E+000
1.08852068E+000
1.08253813E+000
1.19033160E+000
1.00000000E+000
1.21375008E+000
1.40209953E+000
1.00000000E+000
1.36259130E+000
1.67260092E+000
1.00000000E+000
1.91900712E+000
1.00000000E+000
1.69622628E+000
2.18773588E+000
1.00000000E+000
2.13808966E+000
1.60629822E+000
2.02563938E+000
2.52472697E+000
1.00000000E+000
2.52355923E+000
1.47004433E+000
2.54269644E+000
2.06287125E+000
2.90888932E+000
1.00000000E+000
2.92496473E+000
1.52691979E+000
2.32419078E+000
1.98534224E+000
2.85730223E+000
2.38274375E+000
2.80323246E+000
3.33250038E+000
1.00000000E+000
3.33739033E+000
1.53541100E+000
2.49655716E+000
2.02702517E+000
3.27572427E+000
2.46180894E+000
3.04213261E+000
2.89090893E+000
3.78991738E+000
1.00000000E+000
1.55959780E+000
3.79488828E+000
2.09041167E+000
3.73401084E+000
2.61094349E+000
3.14367174E+000
3.57878670E+000
4.28838099E+000
1.59466223E+000
4.29087533E+000
1.00000000E+000
2.16983610E+000
4.22292457E+000
4.19946001E+000
2.74364584E+000
3.38951672E+000
4.03470189E+000
4.82246975E+000
4.80871432E+000
1.63486237E+000
2.23381382E+000
4.72805440E+000
1.00000000E+000
4.52319579E+000
2.80508389E+000
3.29309348E+000
5.37402917E+000
4.52140548E+000
4.01807458E+000
5.34060193E+000
2.32797072E+000
1.67926605E+000
5.24633719E+000
5.03231787E+000
2.97426780E+000
1.00000000E+000
3.49422382E+000
5.93470386E+000
2.43854972E+000
5.90201423E+000
1.73017993E+000
5.80955517E+000
3.18485407E+000
5.59887896E+000
1.00000000E+000
5.34549711E+000
4.42080192E+000
3.93030100E+000
6.50439498E+000
6.47120309E+000
2.54594796E+000
1.77969975E+000
6.39483091E+000
1.00000000E+000
6.20833765E+000
3.40940335E+000
5.89126269E+000
5.34402564E+000
4.48151189E+000
7.08527079E+000
2.61657225E+000
7.05910371E+000
1.82244042E+000
6.98506077E+000
1.00000000E+000
3.45481840E+000
6.82986152E+000
6.59731173E+000
4.39037185E+000
5.35043619E+000
6.22913570E+000
2.69605024E+000
7.67709693E+000
7.65186876E+000
1.86922451E+000
4.99458350E+000
3.52681598E+000
7.58518587E+000
1.00000000E+000
7.47998107E+000
4.33609621E+000
5.66800167E+000
5.35170610E+000
7.32950694E+000
6.27427343E+000
4.99652512E+000
7.14260933E+000
5.48991737E+000
2.80372603E+000
8.27954954E+000
3.64704791E+000
8.25807667E+000
1.92648944E+000
5.94241089E+000
6.19001475E+000
8.21063738E+000
1.00000000E+000
4.45142596E+000
8.13486870E+000
6.99031682E+000
5.17464563E+000
8.04179332E+000
5.78535481E+000
6.71151783E+000
6.28423403E+000
7.91788977E+000
2.93844650E+000
3.82529906E+000
8.89118833E+000
8.87466557E+000
1.99590271E+000
4.66729365E+000
8.83915970E+000
1.00000000E+000
7.74706785E+000
5.44727267E+000
8.78910857E+000
6.15972227E+000
8.71973277E+000
7.30911786E+000
6.83000929E+000
8.62264389E+000
3.09857228E+000
4.05243473E+000
9.50682002E+000
9.49177665E+000
2.07803114E+000
4.94396959E+000
9.47030122E+000
1.00000000E+000
8.48535401E+000
5.77884539E+000
9.43700899E+000
6.57458942E+000
9.38314417E+000
7.31971090E+000
8.36248588E+000
9.32079493E+000
1.01226991E+001
3.28379277E+000
4.30829702E+000
1.01148065E+001
2.17608392E+000
5.25178783E+000
1.01022371E+001
1.00000000E+000
6.14168517E+000
9.26243977E+000
1.00782065E+001
6.97273434E+000
1.00430686E+001
7.75764035E+000
9.24882023E+000
1.00124412E+001
8.50294601E+000
1.07350011E+001
1.07322645E+001
3.48157937E+000
4.58290001E+000
2.28585609E+000
1.07210265E+001
5.60551773E+000
9.99303862E+000
1.00000000E+000
6.54954867E+000
1.07094919E+001
7.40579496E+000
1.06946445E+001
9.49158686E+000
8.17647761E+000
1.00322760E+001
1.06860041E+001
8.90510150E+000
1.13396522E+001
1.13377030E+001
3.71258028E+000
4.91144903E+000
1.13324984E+001
2.40486190E+000
1.06910423E+001
6.00602216E+000
1.00000000E+000
1.00918621E+001
1.13307693E+001
6.99925229E+000
9.50270876E+000
7.87641381E+000
1.13359991E+001
1.07104100E+001
8.63719670E+000
1.13419926E+001
9.28511570E+000
1.01831491E+001
1.19310948E+001
1.07451430E+001
1.19304585E+001
9.77036939E+000
1.13559304E+001
1.19291712E+001
3.99023749E+000
2.55181317E+000
5.29085672E+000
1.00000000E+000
6.47694158E+000
1.19398915E+001
1.01480499E+001
7.51525275E+000
1.13723887E+001
1.19573313E+001
1.07755578E+001
8.41403899E+000
9.17618654E+000
1.19838974E+001
9.80481045E+000
1.13830533E+001
1.03088431E+001
1.25054107E+001
1.25062730E+001
1.08773941E+001
1.20098660E+001
1.25139749E+001
4.33683349E+000
2.73398443E+000
1.13970398E+001
5.77158485E+000
1.00000000E+000
1.25375158E+001
7.05035199E+000
1.20278309E+001
8.17197153E+000
1.25687000E+001
1.14454560E+001
9.10696095E+000
1.20273743E+001
9.83098762E+000
1.26065545E+001
1.04827253E+001
1.09075869E+001
1.11430676E+001
1.20117359E+001
1.16803879E+001
1.30594999E+001
1.26415332E+001
1.30636872E+001
1.30817948E+001
3.02470813E+000
4.84382485E+000
1.20036044E+001
1.00000000E+000
1.31164504E+001
1.26647150E+001
6.44302360E+000
7.81627789E+000
1.19081059E+001
1.31564244E+001
1.26595011E+001
9.01924262E+000
1.18988565E+001
1.32136748E+001
1.26216019E+001
1.00189608E+001
1.06368469E+001
1.17456317E+001
1.25028875E+001
1.35897611E+001
1.13251603E+001
1.24629567E+001
1.32621041E+001
1.35969196E+001
1.36251200E+001
3.56856490E+000
5.70351904E+000
1.32905468E+001
1.00000000E+000
1.36704246E+001
7.37154040E+000
1.32929928E+001
1.37286678E+001
8.77116448E+000
1.27258440E+001
1.32464413E+001
1.17572190E+001
1.31229341E+001
1.37954173E+001
1.14715020E+001
1.00476658E+001
1.25182883E+001
1.40929598E+001
1.38540596E+001
1.24428286E+001
1.41068783E+001
1.12867785E+001
5.12621142E+000
1.41428383E+001
7.03109021E+000
1.39014797E+001
1.00000000E+000
8.51980335E+000
1.41915207E+001
1.24296650E+001
1.39273735E+001
1.42651019E+001
9.83683153E+000
1.23669521E+001
1.39159067E+001
1.43399736E+001
1.38641749E+001
1.10249022E+001
7.46274368E+000
8.60221715E+000
1.37149719E+001
8.16835582E+000
1.45672015E+001
1.34003960E+001
1.44149667E+001
1.34069348E+001
1.24744726E+001
1.45884016E+001
1.28845619E+001
1.33434806E+001
1.46284843E+001
9.75719967E+000
7.41791675E+000
1.44841258E+001
1.22101388E+001
1.46852729E+001
1.09783220E+001
8.96872565E+000
1.45392352E+001
1.47630029E+001
9.98656575E+000
1.33318623E+001
9.88280073E+000
1.45719094E+001
1.20132986E+001
1.48486017E+001
9.83305382E+000
1.21279339E+001
1.31537958E+001
1.10939710E+001
1.50097651E+001
1.49356577E+001
1.46708353E+001
1.50314532E+001
1.41559885E+001
1.50738739E+001
1.40421360E+001
1.45854730E+001
1.12484666E+001
1.50244620E+001
1.18911782E+001
1.32266765E+001
1.51391521E+001
1.15506775E+001
1.27102549E+001
1.38755444E+001
1.47735156E+001
1.51151882E+001
1.48066678E+001
1.52249911E+001
1.24115606E+001
1.35115810E+001
1.53186168E+001
1.52130356E+001
1.40216186E+001
1.27969181E+001
1.36100211E+001
1.54179511E+001
1.54104517E+001
1.46701235E+001
1.49437484E+001
1.54418452E+001
1.37123196E+001
1.50878479E+001
1.52475630E+001
1.54891987E+001
1.49202762E+001
1.69879197E+001
1.46727615E+001
1.55095248E+001
1.43189726E+001
1.53924510E+001
1.55612487E+001
1.38630321E+001
1.56362373E+001
1.56446720E+001
1.44862185E+001
1.58475475E+001
1.43284083E+001
1.54221861E+001
1.56150271E+001
1.57411281E+001
1.53199557E+001
1.52743455E+001
1.57872630E+001
1.71260793E+001
1.47883251E+001
1.54770826E+001
1.53452759E+001
1.58421314E+001
1.57902919E+001
1.59290555E+001
1.53622715E+001
1.88726182E+001
1.58179174E+001
1.55857997E+001
1.53209252E+001
1.60382056E+001
1.53671291E+001
1.59944696E+001
1.58647000E+001
1.59550426E+001
1.61774282E+001
1.59366867E+001
1.58823772E+001
1.56657908E+001
1.74304535E+001
1.59112429E+001
1.61413502E+001
1.60290953E+001
1.62372011E+001
1.60193388E+001
1.61111751E+001
1.89320322E+001
1.61190768E+001
1.61194457E+001
1.62035448E+001
1.61150811E+001
1.62339691E+001
1.62941583E+001
1.68042388E+001
2.05321864E+001
1.60427246E+001
1.63390387E+001
1.66658773E+001
1.63730779E+001
1.65151185E+001
1.64504248E+001
1.78011171E+001
1.62202875E+001
1.62907691E+001
1.61253578E+001
1.61497639E+001
1.62412959E+001
1.65959235E+001
1.90801996E+001
1.68517036E+001
1.61965321E+001
1.63608197E+001
1.67282535E+001
1.67956578E+001
1.62648183E+001
1.74367097E+001
2.05472685E+001
1.69671428E+001
1.69370873E+001
1.71024015E+001
1.67441740E+001
1.65298209E+001
1.82408339E+001
1.63433520E+001
1.67841699E+001
1.71991115E+001
1.70861347E+001
2.20277640E+001
1.93248009E+001
1.70745121E+001
1.64410238E+001
1.75738007E+001
1.67309555E+001
1.70807692E+001
1.69754615E+001
1.73062531E+001
1.72224774E+001
2.06131904E+001
1.72235339E+001
1.80636825E+001
1.65629915E+001
1.74803547E+001
1.64207124E+001
1.69329830E+001
1.87270640E+001
1.64440264E+001
1.73519022E+001
1.77760003E+001
2.19977123E+001
1.66527202E+001
1.64887583E+001
1.72259524E+001
1.96252008E+001
1.74373861E+001
1.81706437E+001
1.65515167E+001
1.74262898E+001
1.71542283E+001
1.69721760E+001
2.07612270E+001
1.78471783E+001
2.33938039E+001
1.79063112E+001
1.66304737E+001
1.86623943E+001
1.76400438E+001
1.78020809E+001
1.81855651E+001
1.75084698E+001
2.20152235E+001
1.76452650E+001
1.92513668E+001
1.66902157E+001
1.70883820E+001
1.73763579E+001
1.99929139E+001
1.86426084E+001
1.79262313E+001
1.68584818E+001
2.33286620E+001
2.09558330E+001
1.80723093E+001
1.72782235E+001
1.84849622E+001
1.66741603E+001
1.91744247E+001
1.82077373E+001
1.66935672E+001
1.76331131E+001
1.70972357E+001
1.78076245E+001
2.20800507E+001
1.67358658E+001
1.79924099E+001
1.83882924E+001
1.97692237E+001
1.89237982E+001
2.46540601E+001
1.74890000E+001
1.67969914E+001
1.72030450E+001
2.04179689E+001
1.83777983E+001
2.33156325E+001
1.79031145E+001
1.89057879E+001
1.68818370E+001
2.12336338E+001
1.81962202E+001
1.87381940E+001
1.73825493E+001
1.91051548E+001
1.77206362E+001
1.96092814E+001
1.69954878E+001
2.22349949E+001
2.45717771E+001
1.87359016E+001
1.71404844E+001
1.86138914E+001
1.82051245E+001
2.02283948E+001
1.75684751E+001
2.33449262E+001
1.93175255E+001
1.79700567E+001
1.90515743E+001
2.08550063E+001
1.72907303E+001
1.98071577E+001
1.68848562E+001
1.69010263E+001
2.15625983E+001
2.58288450E+001
1.90909775E+001
1.69401832E+001
1.77788268E+001
2.45300146E+001
1.96692984E+001
1.82328886E+001
1.84593184E+001
2.24408781E+001
1.74537614E+001
1.70063743E+001
1.97196667E+001
1.86762334E+001
1.89953401E+001
1.96637453E+001
1.70643474E+001
2.34449280E+001
2.06148073E+001
1.80097896E+001
1.76220225E+001
1.85053181E+001
1.94891295E+001
2.57360813E+001
1.72630269E+001
2.12535955E+001
1.87011659E+001
2.19101712E+001
2.45330478E+001
2.00800270E+001
1.94097551E+001
1.78140630E+001
1.73542520E+001
1.82587487E+001
2.26908111E+001
1.89242071E+001
1.99530374E+001
2.04418679E+001
1.92466890E+001
2.69294940E+001
1.74945548E+001
2.35989745E+001
2.56896773E+001
1.80257546E+001
1.85221230E+001
1.70510193E+001
1.70697032E+001
2.09465270E+001
1.70838689E+001
1.98355422E+001
1.76514673E+001
2.46021641E+001
1.71756483E+001
1.87846255E+001
2.16194764E+001
1.90213779E+001
2.22497671E+001
1.82626037E+001
2.04691861E+001
1.73143915E+001
2.68392824E+001
1.96936662E+001
1.78268525E+001
2.29759210E+001
2.56749524E+001
1.73971171E+001
2.03063180E+001
2.38021500E+001
1.85239313E+001
1.80213169E+001
1.75228482E+001
2.10463937E+001
2.47240053E+001
1.95080716E+001
2.79671647E+001
2.01503997E+001
2.67811626E+001
1.76599231E+001
1.82454284E+001
1.88097287E+001
2.25599517E+001
2.21115311E+001
2.08606675E+001
2.57164013E+001
2.32590816E+001
1.71792914E+001
1.71775817E+001
1.78189143E+001
1.99637808E+001
1.72659950E+001
2.40333771E+001
1.91111645E+001
1.84974154E+001
2.78849894E+001
1.73189633E+001
2.06367911E+001
2.16016469E+001
2.67592052E+001
1.79969110E+001
2.48809086E+001
1.74115752E+001
1.94906575E+001
2.14744423E+001
1.75208296E+001
1.87767165E+001
2.04383804E+001
1.82015917E+001
2.57974056E+001
2.00669274E+001
2.29302021E+001
2.35146378E+001
2.78196144E+001
1.76439788E+001
2.89518274E+001
2.11853363E+001
2.42675038E+001
2.67740074E+001
1.84333192E+001
1.90888842E+001
1.77874140E+001
2.03362087E+001
2.50764523E+001
2.09393797E+001
1.79480795E+001
2.22780974E+001
2.88759369E+001
2.28379348E+001
1.72636573E+001
1.72922515E+001
1.86950727E+001
2.59175375E+001
2.00517221E+001
2.77779498E+001
1.73343755E+001
2.31508264E+001
1.94473229E+001
2.18239801E+001
1.74037509E+001
1.81324837E+001
2.36005102E+001
2.07351721E+001
1.74901031E+001
2.68175744E+001
2.44688087E+001
1.89901745E+001
2.14983036E+001
1.75971085E+001
1.83461626E+001
1.98383485E+001
2.88063120E+001
2.52615886E+001
2.98878960E+001
2.05403191E+001
2.77675155E+001
1.77250359E+001
2.60726863E+001
1.85868411E+001
1.93227443E+001
2.12629145E+001
2.24963327E+001
2.40454028E+001
1.78726171E+001
2.30180937E+001
2.69029644E+001
2.98157273E+001
2.87483299E+001
2.21240123E+001
1.80397136E+001
2.02809976E+001
2.46516844E+001
1.88598079E+001
2.10275635E+001
1.72960536E+001
1.96911856E+001
2.77777946E+001
1.73329309E+001
2.54533758E+001
1.73734562E+001
2.39938314E+001
1.82311807E+001
1.74380941E+001
2.18193741E+001
2.62210618E+001
1.75248181E+001
1.91650098E+001
2.97442202E+001
2.87066451E+001
1.84520024E+001
1.76326744E+001
3.07780060E+001
2.30561132E+001
2.07576829E+001
2.70182760E+001
2.27366830E+001
2.00902647E+001
1.77621809E+001
2.47009571E+001
2.15648784E+001
2.78388033E+001
1.87016984E+001
1.95058812E+001
2.38393295E+001
1.79142326E+001
2.24405481E+001
2.55739276E+001
2.96768016E+001
3.07087894E+001
2.86887588E+001
2.33392234E+001
2.63869308E+001
2.05205092E+001
1.80901889E+001
2.12711695E+001
1.89813962E+001
2.71248283E+001
1.98821638E+001
2.48232429E+001
2.21361059E+001
1.82909092E+001
2.79106492E+001
2.96111552E+001
3.06369141E+001
2.40467396E+001
1.92915058E+001
2.30382594E+001
3.16240524E+001
1.85172952E+001
2.09939988E+001
2.87122206E+001
2.57034971E+001
2.02849423E+001
2.18203140E+001
2.48543601E+001
2.66358159E+001
1.96313985E+001
1.87708219E+001
2.72599794E+001
2.27675104E+001
3.05673041E+001
2.95719661E+001
3.15600892E+001
2.79875376E+001
2.38699875E+001
2.07160567E+001
2.15073996E+001
1.90527369E+001
2.56778255E+001
2.87573802E+001
2.00046298E+001
2.24098826E+001
3.04875045E+001
3.14947583E+001
2.48914151E+001
2.95594541E+001
1.93636704E+001
3.24283879E+001
2.34663030E+001
2.73949956E+001
2.11901085E+001
2.20503731E+001
2.80823946E+001
2.04091611E+001
2.66714212E+001
2.56831576E+001
2.88131572E+001
1.97046916E+001
2.30551432E+001
3.04206174E+001
3.14217412E+001
3.23719989E+001
2.95725024E+001
2.64901773E+001
2.16964601E+001
2.08461045E+001
2.49956815E+001
2.42327906E+001
2.26372081E+001
2.00754536E+001
2.75031618E+001
2.81857289E+001
2.57011584E+001
3.03695019E+001
3.13407446E+001
2.88719561E+001
3.23191287E+001
3.31945833E+001
2.37451897E+001
2.71997496E+001
2.13123843E+001
2.64484739E+001
2.95957675E+001
2.22318341E+001
2.04761688E+001
2.32680926E+001
3.12471806E+001
3.03461950E+001
2.71738051E+001
3.22516910E+001
3.31508371E+001
2.50518143E+001
2.83240052E+001
2.57443102E+001
2.78594638E+001
2.18121243E+001
2.89442581E+001
2.09082088E+001
2.64556740E+001
2.44625860E+001
2.28055495E+001
2.96380247E+001
3.11657060E+001
3.21581848E+001
2.71622738E+001
3.03423275E+001
2.39344509E+001
3.31149672E+001
3.39233344E+001
2.13717137E+001
2.23437841E+001
2.78381604E+001
2.83600359E+001
2.89943446E+001
2.34088890E+001
3.10981053E+001
2.58309960E+001
3.20450621E+001
2.64911665E+001
2.96722034E+001
2.51945423E+001
2.71722258E+001
3.30599075E+001
3.38966815E+001
2.18657962E+001
3.03601429E+001
2.46233533E+001
2.29057403E+001
2.78454839E+001
3.19278591E+001
2.84771556E+001
3.10671035E+001
2.40546746E+001
2.90578453E+001
3.29704457E+001
2.96841251E+001
3.38829798E+001
2.23899294E+001
3.46168710E+001
2.65522922E+001
2.72014495E+001
2.59083374E+001
3.03991507E+001
2.34937107E+001
2.78558236E+001
3.18374989E+001
2.53117893E+001
3.10432300E+001
2.84911892E+001
3.28154568E+001
2.47084359E+001
2.90884663E+001
3.46072801E+001
2.29416539E+001
3.38656518E+001
2.96985655E+001
3.17565016E+001
2.41141613E+001
3.03706145E+001
2.72469909E+001
3.26759848E+001
2.66158188E+001
2.78809739E+001
2.59878408E+001
3.10781318E+001
2.85036988E+001
3.52814289E+001
3.46126964E+001
2.35176529E+001
2.91023445E+001
2.53722214E+001
3.37997612E+001
3.17124817E+001
3.25521177E+001
2.97202200E+001
2.47405669E+001
3.03660056E+001
2.79189722E+001
3.52803040E+001
3.35969018E+001
2.73012969E+001
2.85233178E+001
3.24279672E+001
2.66643024E+001
2.41155589E+001
2.91034146E+001
3.12850108E+001
3.46491607E+001
3.16553938E+001
2.60363962E+001
2.96853935E+001
3.33314645E+001
3.23354673E+001
2.53891040E+001
3.59188201E+001
3.52995992E+001
3.03592051E+001
2.47330044E+001
3.23056010E+001
2.85589111E+001
2.79677234E+001
2.91198426E+001
3.32714856E+001
2.73433522E+001
3.09217333E+001
2.96604606E+001
2.66974979E+001
3.46795311E+001
3.59206678E+001
3.02654531E+001
2.60453448E+001
3.32068621E+001
3.19126857E+001
3.53378737E+001
3.44055613E+001
2.53677098E+001
2.91592323E+001
3.27348979E+001
2.85997654E+001
2.96736486E+001
3.27482202E+001
2.80086999E+001
3.01671628E+001
2.73611879E+001
3.41899018E+001
3.59466850E+001
3.65267265E+001
3.21350629E+001
3.11245453E+001
2.66970374E+001
3.55489612E+001
3.08513358E+001
2.60184938E+001
3.40093806E+001
2.97185296E+001
3.01604120E+001
3.65295760E+001
2.92075827E+001
3.59930713E+001
2.86459502E+001
3.05115475E+001
2.80317324E+001
3.23279784E+001
3.18899366E+001
3.28386275E+001
3.52806637E+001
3.37800673E+001
2.73664789E+001
3.55793976E+001
3.51074169E+001
3.30478531E+001
2.66813660E+001
3.65470355E+001
3.71034177E+001
3.06258072E+001
3.02309865E+001
3.38643047E+001
3.10957567E+001
3.60292049E+001
2.97848517E+001
3.17308362E+001
3.50231224E+001
3.11977805E+001
2.92676872E+001
3.25525723E+001
2.86862953E+001
2.80396270E+001
3.65696244E+001
3.71038586E+001
3.60130799E+001
3.21504427E+001
3.09828390E+001
3.06684438E+001
3.47336917E+001
2.73531870E+001
3.11988261E+001
3.03092963E+001
3.30692581E+001
3.16683772E+001
3.58372343E+001
2.98665699E+001
3.18930362E+001
3.13632091E+001
2.93275485E+001
3.57031956E+001
3.71145350E+001
3.65762918E+001
3.10617603E+001
3.44138512E+001
3.27498713E+001
3.76510533E+001
2.87134232E+001
3.36707390E+001
3.08182311E+001
3.16770378E+001
2.80341675E+001
3.55612278E+001
3.23969273E+001
3.04353970E+001
3.13925529E+001
3.65262257E+001
3.71285383E+001
3.10861747E+001
3.76567415E+001
3.20986258E+001
2.99588158E+001
3.33708710E+001
3.43152611E+001
3.54095191E+001
3.64181150E+001
3.17543724E+001
2.93825266E+001
3.08831766E+001
3.14498111E+001
3.29504007E+001
2.87209188E+001
3.71249114E+001
3.76637751E+001
3.25554570E+001
3.62846504E+001
3.14035314E+001
3.81705918E+001
3.14795960E+001
3.05634467E+001
3.21635077E+001
3.17670711E+001
3.40009388E+001
3.53011881E+001
3.61617845E+001
3.70800818E+001
3.00477659E+001
3.76645170E+001
3.35712400E+001
3.17225333E+001
3.81828283E+001
2.94126960E+001
3.12236691E+001
3.31072083E+001
3.14856915E+001
3.26910069E+001
3.21765465E+001
3.69845477E+001
3.60564591E+001
3.52459246E+001
3.46508738E+001
3.76539922E+001
3.81879023E+001
3.68594540E+001
3.07239953E+001
3.86634727E+001
3.41851232E+001
3.20914366E+001
3.36943484E+001
3.01128883E+001
3.26003657E+001
3.31338453E+001
3.76180653E+001
3.59954109E+001
3.67422676E+001
3.19133012E+001
3.81856809E+001
3.86806461E+001
3.14911706E+001
3.75386629E+001
3.26063715E+001
3.52971149E+001
3.66690401E+001
3.47977157E+001
3.32925628E+001
3.81730493E+001
3.42872836E+001
3.37664327E+001
3.08130517E+001
3.59564180E+001
3.86872199E+001
3.74241988E+001
3.91313728E+001
3.24689825E+001
3.81389812E+001
3.73080572E+001
3.66391533E+001
3.31604704E+001
3.86822220E+001
3.37723666E+001
3.91482082E+001
3.43333038E+001
3.48622745E+001
3.53865669E+001
3.14554750E+001
3.80679519E+001
3.22767343E+001
3.59429701E+001
3.72320062E+001
3.86696708E+001
3.30563116E+001
3.65771799E+001
3.91552866E+001
3.79634109E+001
3.95743010E+001
3.37371930E+001
3.43340923E+001
3.86375728E+001
3.48928807E+001
3.78415137E+001
3.54198633E+001
3.20882948E+001
3.91545576E+001
3.59515845E+001
3.29144889E+001
3.72891718E+001
3.95884056E+001
3.77354998E+001
3.65299396E+001
3.85655918E+001
3.36404639E+001
3.42946472E+001
3.91379993E+001
3.76988839E+001
3.48890522E+001
3.72110358E+001
3.84765684E+001