# vtk DataFile Version 1.0
ECM-CELL DIFFUSION-MECHANICS
ASCII

DATASET UNSTRUCTURED_GRID
POINTS      236 float
1.50000000E+001 3.00000000E+001 0.00000000E+000
1.37500000E+001 2.87500000E+001 0.00000000E+000
1.30000000E+001 3.00000000E+001 0.00000000E+000
1.25000000E+001 2.75000000E+001 0.00000000E+000
1.10000000E+001 3.00000000E+001 0.00000000E+000
1.15120000E+001 2.78810000E+001 0.00000000E+000
1.07620000E+001 2.91310000E+001 0.00000000E+000
1.05240000E+001 2.82620000E+001 0.00000000E+000
1.12500000E+001 2.62500000E+001 0.00000000E+000
9.00000000E+000 3.00000000E+001 0.00000000E+000
9.29760000E+000 2.77740000E+001 0.00000000E+000
1.00000000E+001 2.50000000E+001 0.00000000E+000
9.03570000E+000 2.61430000E+001 0.00000000E+000
8.07140000E+000 2.72870000E+001 0.00000000E+000
7.53570000E+000 2.86430000E+001 0.00000000E+000
7.00000000E+000 3.00000000E+001 0.00000000E+000
8.75000000E+000 2.37500000E+001 0.00000000E+000
6.44690000E+000 2.66260000E+001 0.00000000E+000
5.00000000E+000 3.00000000E+001 0.00000000E+000
6.16120000E+000 2.42320000E+001 0.00000000E+000
7.50000000E+000 2.25000000E+001 0.00000000E+000
4.82240000E+000 2.59650000E+001 0.00000000E+000
3.91120000E+000 2.79820000E+001 0.00000000E+000
3.00000000E+000 3.00000000E+001 0.00000000E+000
6.25000000E+000 2.12500000E+001 0.00000000E+000
2.79050000E+000 2.49930000E+001 0.00000000E+000
1.00000000E+000 3.00000000E+001 0.00000000E+000
5.00000000E+000 2.00000000E+001 0.00000000E+000
2.87930000E+000 2.20110000E+001 0.00000000E+000
-1.20730000E-001 2.70110000E+001 0.00000000E+000
7.58540000E-001 2.40220000E+001 0.00000000E+000
5.00000000E+000 1.81250000E+001 0.00000000E+000
-1.00000000E+000 3.00000000E+001 0.00000000E+000
5.00000000E+000 1.62500000E+001 0.00000000E+000
4.07700000E-001 2.10760000E+001 0.00000000E+000
-2.12070000E+000 2.51360000E+001 0.00000000E+000
2.52840000E+000 1.71900000E+001 0.00000000E+000
-3.00000000E+000 3.00000000E+001 0.00000000E+000
5.00000000E+000 1.43750000E+001 0.00000000E+000
5.68520000E-002 1.81300000E+001 0.00000000E+000
-2.47160000E+000 2.03150000E+001 0.00000000E+000
-5.00000000E+000 3.00000000E+001 0.00000000E+000
-5.00000000E+000 2.81250000E+001 0.00000000E+000
5.00000000E+000 1.25000000E+001 0.00000000E+000
9.34220000E-001 1.54860000E+001 0.00000000E+000
-5.00000000E+000 2.62500000E+001 0.00000000E+000
-5.00000000E+000 2.43750000E+001 0.00000000E+000
-1.06900000E+000 1.67860000E+001 0.00000000E+000
3.40580000E+000 1.26710000E+001 0.00000000E+000
-5.00000000E+000 2.25000000E+001 0.00000000E+000
1.81160000E+000 1.28430000E+001 0.00000000E+000
5.00000000E+000 1.06250000E+001 0.00000000E+000
-5.00000000E+000 2.06250000E+001 0.00000000E+000
-2.19490000E+000 1.54430000E+001 0.00000000E+000
-3.59750000E+000 1.70970000E+001 0.00000000E+000
2.24760000E+000 1.11350000E+001 0.00000000E+000
-5.00000000E+000 1.87500000E+001 0.00000000E+000
6.58740000E-001 1.20790000E+001 0.00000000E+000
-1.34450000E+000 1.33790000E+001 0.00000000E+000
5.00000000E+000 8.75000000E+000 0.00000000E+000
-2.75200000E+000 1.45930000E+001 0.00000000E+000
3.84180000E+000 9.08840000E+000 0.00000000E+000
-5.00000000E+000 1.68750000E+001 0.00000000E+000
2.68360000E+000 9.42680000E+000 0.00000000E+000
-4.94100000E-001 1.13150000E+001 0.00000000E+000
-3.30910000E+000 1.37430000E+001 0.00000000E+000
-4.15450000E+000 1.43710000E+001 0.00000000E+000
-5.00000000E+000 1.50000000E+001 0.00000000E+000
5.00000000E+000 6.87500000E+000 0.00000000E+000
-1.61320000E+000 1.10510000E+001 0.00000000E+000
-3.02070000E+000 1.22640000E+001 0.00000000E+000
1.99400000E+000 8.23150000E+000 0.00000000E+000
4.05170000E-001 9.17580000E+000 0.00000000E+000
-2.73230000E+000 1.07860000E+001 0.00000000E+000
-5.00000000E+000 1.31250000E+001 0.00000000E+000
1.30440000E+000 7.03610000E+000 0.00000000E+000
3.15220000E+000 6.01810000E+000 0.00000000E+000
-3.86610000E+000 1.10180000E+001 0.00000000E+000
5.00000000E+000 5.00000000E+000 0.00000000E+000
-2.41250000E+000 8.89350000E+000 0.00000000E+000
-5.00000000E+000 1.12500000E+001 0.00000000E+000
-3.94110000E-001 7.01860000E+000 0.00000000E+000
-2.09270000E+000 7.00100000E+000 0.00000000E+000
5.00000000E+000 3.12500000E+000 0.00000000E+000
1.36490000E+000 4.73670000E+000 0.00000000E+000
-5.00000000E+000 9.37500000E+000 0.00000000E+000
-3.54630000E+000 7.25050000E+000 0.00000000E+000
-5.00000000E+000 7.50000000E+000 0.00000000E+000
-1.98790000E+000 5.10770000E+000 0.00000000E+000
5.00000000E+000 1.25000000E+000 0.00000000E+000
3.21270000E+000 1.84360000E+000 0.00000000E+000
1.42530000E+000 2.43720000E+000 0.00000000E+000
-2.28890000E-001 2.82580000E+000 0.00000000E+000
-5.00000000E+000 5.62500000E+000 0.00000000E+000
-1.88310000E+000 3.21430000E+000 0.00000000E+000
5.00000000E+000 -6.25000000E-001 0.00000000E+000
-3.44160000E+000 3.48220000E+000 0.00000000E+000
1.34740000E+000 4.95120000E-001 0.00000000E+000
-5.00000000E+000 3.75000000E+000 0.00000000E+000
-1.88620000E+000 1.46000000E+000 0.00000000E+000
5.00000000E+000 -2.50000000E+000 0.00000000E+000
3.13470000E+000 -1.97350000E+000 0.00000000E+000
1.26940000E+000 -1.44700000E+000 0.00000000E+000
-3.09980000E-001 -8.70660000E-001 0.00000000E+000
-5.00000000E+000 1.87500000E+000 0.00000000E+000
-1.88930000E+000 -2.94350000E-001 0.00000000E+000
-3.44470000E+000 -1.47180000E-001 0.00000000E+000
5.00000000E+000 -4.37500000E+000 0.00000000E+000
-1.91650000E+000 -1.61950000E+000 0.00000000E+000
-5.00000000E+000 0.00000000E+000 0.00000000E+000
8.93320000E-001 -3.42050000E+000 0.00000000E+000
-1.94360000E+000 -2.94470000E+000 0.00000000E+000
-6.82560000E+000 0.00000000E+000 0.00000000E+000
-4.74150000E+000 -1.55460000E+000 0.00000000E+000
5.00000000E+000 -6.25000000E+000 0.00000000E+000
-7.13170000E-001 -4.16940000E+000 0.00000000E+000
-3.21330000E+000 -3.02690000E+000 0.00000000E+000
2.75860000E+000 -5.82200000E+000 0.00000000E+000
-8.65120000E+000 0.00000000E+000 0.00000000E+000
5.17260000E-001 -5.39410000E+000 0.00000000E+000
-4.48290000E+000 -3.10910000E+000 0.00000000E+000
-8.24370000E+000 -1.61350000E+000 0.00000000E+000
-6.15960000E+000 -3.16810000E+000 0.00000000E+000
-1.04770000E+001 0.00000000E+000 0.00000000E+000
-1.36470000E+000 -5.82390000E+000 0.00000000E+000
5.00000000E+000 -8.12500000E+000 0.00000000E+000
-3.86480000E+000 -4.68140000E+000 0.00000000E+000
9.33860000E-001 -7.69700000E+000 0.00000000E+000
-7.83620000E+000 -3.22710000E+000 0.00000000E+000
-1.23020000E+001 0.00000000E+000 0.00000000E+000
-3.24660000E+000 -6.25360000E+000 0.00000000E+000
5.00000000E+000 -1.00000000E+001 0.00000000E+000
-9.60380000E+000 -3.26460000E+000 0.00000000E+000
-7.33770000E+000 -4.86200000E+000 0.00000000E+000
-1.18370000E+001 -1.65110000E+000 0.00000000E+000
-5.04290000E+000 -6.37530000E+000 0.00000000E+000
3.17520000E+000 -1.00000000E+001 0.00000000E+000
-1.41280000E+001 0.00000000E+000 0.00000000E+000
-2.77280000E+000 -8.12680000E+000 0.00000000E+000
1.35050000E+000 -1.00000000E+001 0.00000000E+000
-1.13710000E+001 -3.30210000E+000 0.00000000E+000
-6.83920000E+000 -6.49700000E+000 0.00000000E+000
-4.74300000E-001 -1.00000000E+001 0.00000000E+000
-1.59540000E+001 0.00000000E+000 0.00000000E+000
-1.09080000E+001 -4.96400000E+000 0.00000000E+000
-8.64210000E+000 -6.56140000E+000 0.00000000E+000
-2.29910000E+000 -1.00000000E+001 0.00000000E+000
-1.31350000E+001 -3.33440000E+000 0.00000000E+000
-6.39390000E+000 -8.24850000E+000 0.00000000E+000
-1.54260000E+001 -1.68330000E+000 0.00000000E+000
-4.12380000E+000 -1.00000000E+001 0.00000000E+000
-1.76710000E+001 0.00000000E+000 0.00000000E+000
-1.04450000E+001 -6.62590000E+000 0.00000000E+000
-1.48990000E+001 -3.36660000E+000 0.00000000E+000
-5.94860000E+000 -1.00000000E+001 0.00000000E+000
-1.93890000E+001 0.00000000E+000 0.00000000E+000
-1.22080000E+001 -6.66510000E+000 0.00000000E+000
-1.44350000E+001 -5.03550000E+000 0.00000000E+000
-1.00220000E+001 -8.31290000E+000 0.00000000E+000
-1.66300000E+001 -3.43290000E+000 0.00000000E+000
-7.77340000E+000 -1.00000000E+001 0.00000000E+000
-1.88750000E+001 -1.74960000E+000 0.00000000E+000
-1.39710000E+001 -6.70430000E+000 0.00000000E+000
-2.08960000E+001 0.00000000E+000 0.00000000E+000
-9.59810000E+000 -1.00000000E+001 0.00000000E+000
-1.83600000E+001 -3.49920000E+000 0.00000000E+000
-1.36030000E+001 -8.35210000E+000 0.00000000E+000
-1.56390000E+001 -6.76730000E+000 0.00000000E+000
-1.14170000E+001 -1.00000000E+001 0.00000000E+000
-2.24030000E+001 0.00000000E+000 0.00000000E+000
-1.78330000E+001 -5.16470000E+000 0.00000000E+000
-2.01240000E+001 -3.65560000E+000 0.00000000E+000
-1.32350000E+001 -1.00000000E+001 0.00000000E+000
-2.21460000E+001 -1.90600000E+000 0.00000000E+000
-2.37020000E+001 0.00000000E+000 0.00000000E+000
-1.73060000E+001 -6.83020000E+000 0.00000000E+000
-1.49160000E+001 -1.00000000E+001 0.00000000E+000
-1.69520000E+001 -8.41510000E+000 0.00000000E+000
-2.50000000E+001 0.00000000E+000 0.00000000E+000
-2.18880000E+001 -3.81190000E+000 0.00000000E+000
-1.88450000E+001 -6.94450000E+000 0.00000000E+000
-2.11360000E+001 -5.43530000E+000 0.00000000E+000
-1.65980000E+001 -1.00000000E+001 0.00000000E+000
-2.51930000E+001 -1.52130000E+000 0.00000000E+000
-2.36370000E+001 -3.42720000E+000 0.00000000E+000
-2.62940000E+001 -1.70370000E-001 0.00000000E+000
-2.25680000E+001 -4.74800000E+000 0.00000000E+000
-2.03840000E+001 -7.05870000E+000 0.00000000E+000
-1.81380000E+001 -1.00000000E+001 0.00000000E+000
-2.00310000E+001 -8.52940000E+000 0.00000000E+000
-2.53860000E+001 -3.04250000E+000 0.00000000E+000
-2.15450000E+001 -7.33170000E+000 0.00000000E+000
-2.32490000E+001 -5.68410000E+000 0.00000000E+000
-2.75000000E+001 -6.69870000E-001 0.00000000E+000
-2.61890000E+001 -2.60710000E+000 0.00000000E+000
-2.72460000E+001 -1.42080000E+000 0.00000000E+000
-2.29770000E+001 -6.64440000E+000 0.00000000E+000
-2.69920000E+001 -2.17170000E+000 0.00000000E+000
-2.52690000E+001 -4.33920000E+000 0.00000000E+000
-1.96780000E+001 -1.00000000E+001 0.00000000E+000
-2.42010000E+001 -5.66000000E+000 0.00000000E+000
-2.27050000E+001 -7.60470000E+000 0.00000000E+000
-2.65260000E+001 -3.65080000E+000 0.00000000E+000
-2.75420000E+001 -2.48710000E+000 0.00000000E+000
-2.51530000E+001 -5.63580000E+000 0.00000000E+000
-2.85360000E+001 -1.46450000E+000 0.00000000E+000
-2.10770000E+001 -1.00000000E+001 0.00000000E+000
-2.25910000E+001 -8.80230000E+000 0.00000000E+000
-2.37730000E+001 -7.63820000E+000 0.00000000E+000
-2.80910000E+001 -2.80260000E+000 0.00000000E+000
-2.49970000E+001 -6.65380000E+000 0.00000000E+000
-2.78780000E+001 -3.53090000E+000 0.00000000E+000
-2.87110000E+001 -2.65130000E+000 0.00000000E+000
-2.61700000E+001 -5.91360000E+000 0.00000000E+000
-2.76660000E+001 -4.25910000E+000 0.00000000E+000
-2.24770000E+001 -1.00000000E+001 0.00000000E+000
-2.48410000E+001 -7.67170000E+000 0.00000000E+000
-2.93300000E+001 -2.50000000E+000 0.00000000E+000
-2.74260000E+001 -5.22530000E+000 0.00000000E+000
-2.57000000E+001 -7.63050000E+000 0.00000000E+000
-2.71870000E+001 -6.19140000E+000 0.00000000E+000
-2.37380000E+001 -1.00000000E+001 0.00000000E+000
-2.49200000E+001 -8.83590000E+000 0.00000000E+000
-2.68730000E+001 -6.89040000E+000 0.00000000E+000
-2.88330000E+001 -4.62960000E+000 0.00000000E+000
-2.65590000E+001 -7.58930000E+000 0.00000000E+000
-2.98300000E+001 -3.70590000E+000 0.00000000E+000
-2.50000000E+001 -1.00000000E+001 0.00000000E+000
-2.82580000E+001 -6.84570000E+000 0.00000000E+000
-2.70290000E+001 -8.45970000E+000 0.00000000E+000
-3.00000000E+001 -5.00000000E+000 0.00000000E+000
-2.62940000E+001 -9.82960000E+000 0.00000000E+000
-2.98300000E+001 -6.29410000E+000 0.00000000E+000
-2.75000000E+001 -9.33010000E+000 0.00000000E+000
-2.93300000E+001 -7.50000000E+000 0.00000000E+000
-2.85360000E+001 -8.53550000E+000 0.00000000E+000

CELLS       63      567
   8           3           0           4           7           1           2           6           5  
   8          11           3           7          13           8           5          10          12  
   8          15          13           7           4          14          10           6           9  
   8          20          11          13          21          16          12          17          19  
   8          13          15          23          21          14          18          22          17  
   8          27          20          21          30          24          19          25          28  
   8          21          23          32          30          22          26          29          25  
   8          32          41          45          30          37          42          35          29  
   8         139         131         114         119         136         125         117         127  
   8         146         139         119         130         142         127         124         138  
   8         154         146         130         141         150         138         135         148  
   8         164         154         141         152         160         148         145         158  
   8         172         164         152         162         168         158         156         166  
   8         182         172         162         175         176         166         167         177  
   8         199         182         175         187         188         177         180         189  
   8         215         199         187         201         206         189         191         207  
   8         227         215         201         216         221         207         208         222  
   8         233         227         216         225         231         222         219         229  
   8         234         233         225         220         235         229         223         228  
   8         197         209         214         190         203         211         202         194  
   8         169         178         190         179         174         183         184         173  
   8         155         169         179         165         163         173         171         161  
   8         143         155         165         153         151         161         159         149  
   8         129         143         153         140         137         149         147         134  
   8         118         129         140         128         123         134         132         121  
   8         109         118         128         120         112         121         122         113  
   8          33          27          30          39          31          28          34          36  
   8          30          45          49          39          35          46          40          34  
   8         114         100         102         119         107         101         110         117  
   8          43          33          39          50          38          36          44          48  
   8         100          89          91         102          95          90          97         101  
   8          59          43          50          63          51          48          55          61  
   8          49          56          53          39          52          54          47          40  
   8          89          78          75          91          83          76          84          90  
   8          78          59          63          75          68          61          71          76  
   8          56          67          65          53          62          66          60          54  
   8          67          80          73          65          74          77          70          66  
   8          80          87          82          73          85          86          79          77  
   8          87          98          94          82          93          96          88          86  
   8          98         109         105          94         104         106          99          96  
   8         105         109         120         111         106         113         116         108  
   8         220         225         216         204         223         219         210         213  
   8         214         220         204         190         218         213         198         202  
   8         216         201         192         204         208         196         200         210  
   8         192         179         190         204         186         184         198         200  
   8         201         187         179         192         191         181         186         196  
   8         179         187         175         165         181         180         170         171  
   8         165         175         162         153         170         167         157         159  
   8         153         162         152         140         157         156         144         147  
   8         140         152         141         128         144         145         133         132  
   8         128         141         130         120         133         135         126         122  
   8         120         130         119         111         126         124         115         116  
   8          39          53          64          50          47          58          57          44  
   8          63          50          64          75          55          57          72          71  
   8          91          94         105         102          92          99         103          97  
   8          94          91          75          82          92          84          81          88  
   8         102         105         111         119         103         108         115         110  
   8          82          75          64          73          81          72          69          79  
   8          73          64          53          65          69          58          60          70  
   8         217         230         214         209         226         224         211         212  
   8         193         217         209         197         205         212         203         195  
   8         193         197         190         178         195         194         183         185  
   8         230         234         220         214         232         228         218         224  

CELL_TYPES       63
   23    23    23    23    23    23    23    23    23    23    23    23    23    23    23    23    23    23    23    23    23    23    23    23    23    23    23    23    23    23    23    23    23    23    23    23    23    23    23    23    23    23    23    23    23    23    23    23    23    23    23    23    23    23    23    23    23    23    23    23    23    23    23 
POINT_DATA      236
SCALARS Ux float
LOOKUP_TABLE default
1.00000000E+000
1.00000000E+000
1.53562732E+000
1.00000000E+000
2.73791081E+000
1.88006223E+000
2.86877656E+000
2.80956958E+000
1.00000000E+000
4.48876736E+000
3.71431716E+000
1.00000000E+000
3.02016076E+000
4.77986863E+000
5.83393755E+000
6.57511246E+000
1.00000000E+000
6.38667252E+000
8.85780223E+000
4.99216394E+000
1.00000000E+000
8.35871130E+000
1.00068627E+001
1.10133065E+001
1.00000000E+000
1.08442075E+001
1.32735054E+001
1.00000000E+000
9.91955013E+000
1.43354503E+001
1.40951531E+001
1.20483284E+001
1.47564846E+001
2.11903815E+001
1.57172027E+001
1.63412978E+001
1.91187510E+001
1.56941220E+001
2.58725008E+001
2.08757230E+001
1.96724161E+001
1.62072755E+001
1.61395216E+001
2.89083450E+001
2.44554727E+001
1.65193944E+001
1.76376538E+001
2.36273062E+001
2.90102175E+001
1.83073965E+001
2.87224621E+001
3.20214603E+001
1.99904064E+001
2.60146589E+001
2.41138832E+001
3.14595702E+001
2.21362612E+001
3.02690917E+001
2.88023580E+001
3.46340177E+001
2.73874665E+001
3.41693710E+001
2.45402294E+001
3.38405177E+001
3.15596723E+001
2.86630450E+001
2.78957617E+001
2.70673412E+001
3.67197024E+001
3.20665022E+001
3.06313844E+001
3.52785084E+001
3.42367054E+001
3.25094151E+001
2.96060795E+001
3.65693216E+001
3.75447449E+001
3.22892725E+001
3.84310229E+001
3.47164948E+001
3.20272924E+001
3.66020890E+001
3.66359923E+001
3.98353921E+001
3.86050151E+001
3.42434723E+001
3.64200742E+001
3.61802406E+001
3.82306466E+001
4.09517220E+001
4.05871587E+001
4.01537417E+001
3.98074356E+001
3.78097208E+001
3.94701853E+001
4.18025076E+001
3.92006075E+001
4.11113023E+001
3.90455688E+001
4.02392929E+001
4.24381738E+001
4.21975629E+001
4.18012794E+001
4.13268613E+001
3.97703963E+001
4.07918039E+001
4.02874764E+001
4.28925030E+001
4.10630595E+001
3.97348204E+001
4.22217137E+001
4.12506960E+001
3.81828058E+001
3.97671216E+001
4.31969601E+001
4.18890642E+001
4.06922256E+001
4.29841469E+001
3.63309369E+001
4.24534803E+001
3.99502253E+001
3.67843922E+001
3.87432399E+001
3.41785228E+001
4.18285969E+001
4.33741082E+001
4.04382541E+001
4.27899736E+001
3.71958385E+001
3.16905962E+001
4.09135915E+001
4.34269569E+001
3.52644858E+001
3.77132077E+001
3.23587458E+001
3.97115615E+001
4.33179340E+001
2.88614347E+001
4.12644709E+001
4.29731261E+001
3.30124455E+001
3.82168536E+001
4.23907825E+001
2.56955755E+001
3.36412427E+001
3.63930815E+001
4.15549790E+001
3.04491523E+001
3.86453454E+001
2.66391943E+001
4.04450492E+001
2.23744293E+001
3.42514934E+001
2.75739092E+001
3.90428503E+001
1.87021015E+001
3.18452876E+001
2.83625557E+001
3.47910632E+001
2.44387438E+001
3.73359415E+001
1.99232044E+001
2.91300567E+001
1.53293411E+001
3.53114514E+001
2.10208007E+001
2.97251646E+001
2.62789150E+001
3.29691568E+001
1.15298102E+001
2.21209182E+001
1.73281534E+001
3.03022131E+001
1.22119113E+001
6.81422222E+000
2.31592382E+001
2.75488452E+001
2.38239951E+001
9.43689571E-015
1.34749492E+001
2.00258565E+001
1.51211014E+001
2.45034820E+001
4.02975999E+000
9.15312594E+000
1.28785871E-014
1.19161268E+001
1.66635118E+001
2.14357119E+001
1.74011391E+001
5.65005225E+000
1.40280914E+001
1.03285344E+001
6.66133815E-015
3.74119216E+000
1.04043164E+000
1.08085589E+001
2.33074987E+000
6.30765498E+000
1.80869805E+001
8.38948540E+000
1.12441686E+001
3.96566348E+000
1.88870337E+000
6.45226928E+000
0.00000000E+000
1.49086048E+001
1.08956346E+001
8.35358639E+000
1.39896736E+000
6.47828931E+000
2.06948187E+000
6.74112185E-001
4.68277427E+000
2.53720597E+000
1.13037475E+001
6.16075792E+000
5.32907052E-015
2.92393541E+000
4.31510821E+000
3.03372023E+000
6.78701596E+000
4.00121985E+000
3.18574100E+000
1.18748153E+000
3.12850551E+000
-1.77635684E-015
1.06581410E-014
1.42887237E+000
1.42016052E+000
-3.55271368E-015
7.10542736E-015
0.00000000E+000
0.00000000E+000
-3.55271368E-015
-0.00000000E+000
