# vtk DataFile Version 1.0
ECM-CELL DIFFUSION-MECHANICS
ASCII

DATASET UNSTRUCTURED_GRID
POINTS        9 float
0.00000000E+000 1.00000000E+000 0.00000000E+000
5.00000000E-001 1.00000000E+000 0.00000000E+000
0.00000000E+000 5.00000000E-001 0.00000000E+000
5.00000000E-001 5.00000000E-001 0.00000000E+000
0.00000000E+000 0.00000000E+000 0.00000000E+000
1.00000000E+000 1.00000000E+000 0.00000000E+000
5.00000000E-001 0.00000000E+000 0.00000000E+000
1.00000000E+000 5.00000000E-001 0.00000000E+000
1.00000000E+000 0.00000000E+000 0.00000000E+000

CELLS        4       20
   4           6           3           2           4  
   4           8           7           3           6  
   4           3           1           0           2  
   4           7           5           1           3  

CELL_TYPES        4
    9     9     9     9 
POINT_DATA        9
SCALARS Ux float
LOOKUP_TABLE default
1.00000000E+000
5.00000000E-001
1.00000000E+000
5.00000000E-001
1.00000000E+000
1.11022302E-016
5.00000000E-001
3.33066907E-016
0.00000000E+000
