# vtk DataFile Version 1.0
ECM-CELL DIFFUSION-MECHANICS
ASCII

DATASET UNSTRUCTURED_GRID
POINTS      895 float
1.50000000E+001 3.00000000E+001 0.00000000E+000
1.40000000E+001 3.00000000E+001 0.00000000E+000
1.42860000E+001 2.92860000E+001 0.00000000E+000
1.33390000E+001 2.93210000E+001 0.00000000E+000
1.30000000E+001 3.00000000E+001 0.00000000E+000
1.35710000E+001 2.85710000E+001 0.00000000E+000
1.25000000E+001 2.91340000E+001 0.00000000E+000
1.20000000E+001 3.00000000E+001 0.00000000E+000
1.28570000E+001 2.78570000E+001 0.00000000E+000
1.20000000E+001 2.82680000E+001 0.00000000E+000
1.15000000E+001 2.91340000E+001 0.00000000E+000
1.10000000E+001 3.00000000E+001 0.00000000E+000
1.21430000E+001 2.71430000E+001 0.00000000E+000
1.14540000E+001 2.75000000E+001 0.00000000E+000
1.05880000E+001 2.90000000E+001 0.00000000E+000
1.08030000E+001 2.81410000E+001 0.00000000E+000
1.00000000E+001 3.00000000E+001 0.00000000E+000
1.14290000E+001 2.64290000E+001 0.00000000E+000
1.05880000E+001 2.70000000E+001 0.00000000E+000
9.76870000E+000 2.85830000E+001 0.00000000E+000
9.72240000E+000 2.75000000E+001 0.00000000E+000
9.00000000E+000 3.00000000E+001 0.00000000E+000
1.07140000E+001 2.57140000E+001 0.00000000E+000
8.85640000E+000 2.90000000E+001 0.00000000E+000
9.72240000E+000 2.65000000E+001 0.00000000E+000
8.85640000E+000 2.80000000E+001 0.00000000E+000
8.85640000E+000 2.70000000E+001 0.00000000E+000
8.00000000E+000 3.00000000E+001 0.00000000E+000
1.00000000E+001 2.50000000E+001 0.00000000E+000
7.99040000E+000 2.85000000E+001 0.00000000E+000
8.70610000E+000 2.61470000E+001 0.00000000E+000
7.99040000E+000 2.75000000E+001 0.00000000E+000
8.97020000E+000 2.52660000E+001 0.00000000E+000
7.99040000E+000 2.65000000E+001 0.00000000E+000
7.12440000E+000 2.90000000E+001 0.00000000E+000
7.00000000E+000 3.00000000E+001 0.00000000E+000
9.28570000E+000 2.42860000E+001 0.00000000E+000
7.12440000E+000 2.80000000E+001 0.00000000E+000
7.99100000E+000 2.54680000E+001 0.00000000E+000
7.12440000E+000 2.70000000E+001 0.00000000E+000
8.30520000E+000 2.45200000E+001 0.00000000E+000
7.15860000E+000 2.59480000E+001 0.00000000E+000
6.21530000E+000 2.85830000E+001 0.00000000E+000
6.00000000E+000 3.00000000E+001 0.00000000E+000
8.57140000E+000 2.35710000E+001 0.00000000E+000
6.25830000E+000 2.75000000E+001 0.00000000E+000
7.22630000E+000 2.49580000E+001 0.00000000E+000
6.25830000E+000 2.65000000E+001 0.00000000E+000
5.42530000E+000 2.90740000E+001 0.00000000E+000
7.38630000E+000 2.38100000E+001 0.00000000E+000
5.39230000E+000 2.80000000E+001 0.00000000E+000
6.25830000E+000 2.55000000E+001 0.00000000E+000
5.00000000E+000 3.00000000E+001 0.00000000E+000
5.39230000E+000 2.70000000E+001 0.00000000E+000
7.85710000E+000 2.28570000E+001 0.00000000E+000
6.25830000E+000 2.45000000E+001 0.00000000E+000
5.39230000E+000 2.60000000E+001 0.00000000E+000
7.12440000E+000 2.30000000E+001 0.00000000E+000
4.51880000E+000 2.87860000E+001 0.00000000E+000
4.52630000E+000 2.75000000E+001 0.00000000E+000
5.39230000E+000 2.50000000E+001 0.00000000E+000
6.25830000E+000 2.35000000E+001 0.00000000E+000
4.00000000E+000 3.00000000E+001 0.00000000E+000
4.52630000E+000 2.65000000E+001 0.00000000E+000
7.14290000E+000 2.21430000E+001 0.00000000E+000
5.39230000E+000 2.40000000E+001 0.00000000E+000
3.66030000E+000 2.90000000E+001 0.00000000E+000
4.52630000E+000 2.55000000E+001 0.00000000E+000
3.66030000E+000 2.80000000E+001 0.00000000E+000
6.25830000E+000 2.25000000E+001 0.00000000E+000
3.66030000E+000 2.70000000E+001 0.00000000E+000
4.52630000E+000 2.45000000E+001 0.00000000E+000
5.39230000E+000 2.30000000E+001 0.00000000E+000
3.00000000E+000 3.00000000E+001 0.00000000E+000
3.66030000E+000 2.60000000E+001 0.00000000E+000
6.42860000E+000 2.14290000E+001 0.00000000E+000
2.82850000E+000 2.85830000E+001 0.00000000E+000
4.52630000E+000 2.35000000E+001 0.00000000E+000
3.66030000E+000 2.50000000E+001 0.00000000E+000
2.79420000E+000 2.75000000E+001 0.00000000E+000
5.39230000E+000 2.20000000E+001 0.00000000E+000
2.90860000E+000 2.66340000E+001 0.00000000E+000
3.66030000E+000 2.40000000E+001 0.00000000E+000
4.52630000E+000 2.25000000E+001 0.00000000E+000
2.00000000E+000 3.00000000E+001 0.00000000E+000
1.92820000E+000 2.90000000E+001 0.00000000E+000
5.71430000E+000 2.07140000E+001 0.00000000E+000
1.92820000E+000 2.80000000E+001 0.00000000E+000
2.50000000E+000 2.56700000E+001 0.00000000E+000
3.66030000E+000 2.30000000E+001 0.00000000E+000
2.79420000E+000 2.45000000E+001 0.00000000E+000
1.92820000E+000 2.70000000E+001 0.00000000E+000
4.65890000E+000 2.13690000E+001 0.00000000E+000
2.79420000E+000 2.35000000E+001 0.00000000E+000
3.66030000E+000 2.20000000E+001 0.00000000E+000
1.00000000E+000 3.00000000E+001 0.00000000E+000
1.85880000E+000 2.49160000E+001 0.00000000E+000
9.71280000E-001 2.83610000E+001 0.00000000E+000
5.00000000E+000 2.00000000E+001 0.00000000E+000
1.50000000E+000 2.56700000E+001 0.00000000E+000
2.79420000E+000 2.25000000E+001 0.00000000E+000
1.00000000E+000 2.65360000E+001 0.00000000E+000
7.61100000E-001 2.74430000E+001 0.00000000E+000
3.66030000E+000 2.10000000E+001 0.00000000E+000
5.00000000E-001 2.91340000E+001 0.00000000E+000
1.50000000E+000 2.39380000E+001 0.00000000E+000
1.92820000E+000 2.30000000E+001 0.00000000E+000
5.00000000E+000 1.90000000E+001 0.00000000E+000
2.79420000E+000 2.15000000E+001 0.00000000E+000
1.00000000E+000 2.48040000E+001 0.00000000E+000
1.77640000E-015 3.00000000E+001 0.00000000E+000
-3.55270000E-015 2.82680000E+001 0.00000000E+000
5.00000000E-001 2.56700000E+001 0.00000000E+000
3.58180000E+000 2.00000000E+001 0.00000000E+000
-8.88180000E-015 2.65360000E+001 0.00000000E+000
1.71530000E+000 2.21110000E+001 0.00000000E+000
2.79420000E+000 2.05000000E+001 0.00000000E+000
-5.00000000E-001 2.91340000E+001 0.00000000E+000
5.00000000E+000 1.80000000E+001 0.00000000E+000
1.00000000E+000 2.30720000E+001 0.00000000E+000
-5.00000000E-001 2.74020000E+001 0.00000000E+000
5.00000000E-001 2.39380000E+001 0.00000000E+000
3.66030000E+000 1.90000000E+001 0.00000000E+000
1.92820000E+000 2.10000000E+001 0.00000000E+000
-8.88180000E-015 2.48040000E+001 0.00000000E+000
-1.00000000E+000 3.00000000E+001 0.00000000E+000
-1.00000000E+000 2.82680000E+001 0.00000000E+000
-5.00000000E-001 2.56700000E+001 0.00000000E+000
2.79420000E+000 1.95000000E+001 0.00000000E+000
1.06220000E+000 2.15000000E+001 0.00000000E+000
-1.00000000E+000 2.65360000E+001 0.00000000E+000
5.00000000E+000 1.70000000E+001 0.00000000E+000
1.92820000E+000 2.00000000E+001 0.00000000E+000
5.00000000E-001 2.22060000E+001 0.00000000E+000
3.66030000E+000 1.80000000E+001 0.00000000E+000
-1.50000000E+000 2.91340000E+001 0.00000000E+000
1.77640000E-015 2.30720000E+001 0.00000000E+000
-5.00000000E-001 2.39380000E+001 0.00000000E+000
-1.50000000E+000 2.74020000E+001 0.00000000E+000
2.79420000E+000 1.85000000E+001 0.00000000E+000
-1.00000000E+000 2.48040000E+001 0.00000000E+000
1.06220000E+000 2.05000000E+001 0.00000000E+000
-2.00000000E+000 3.00000000E+001 0.00000000E+000
-1.50000000E+000 2.56700000E+001 0.00000000E+000
1.92820000E+000 1.90000000E+001 0.00000000E+000
-2.00000000E+000 2.82680000E+001 0.00000000E+000
5.00000000E+000 1.60000000E+001 0.00000000E+000
3.66030000E+000 1.70000000E+001 0.00000000E+000
1.42110000E-014 2.13400000E+001 0.00000000E+000
-2.00000000E+000 2.65360000E+001 0.00000000E+000
-5.00000000E-001 2.22060000E+001 0.00000000E+000
-1.00000000E+000 2.30720000E+001 0.00000000E+000
1.06220000E+000 1.95000000E+001 0.00000000E+000
2.79420000E+000 1.75000000E+001 0.00000000E+000
-2.50000000E+000 2.91340000E+001 0.00000000E+000
-1.50000000E+000 2.39380000E+001 0.00000000E+000
-2.50000000E+000 2.74020000E+001 0.00000000E+000
1.92820000E+000 1.80000000E+001 0.00000000E+000
-2.00000000E+000 2.48040000E+001 0.00000000E+000
1.96150000E-001 2.00000000E+001 0.00000000E+000
-3.00000000E+000 3.00000000E+001 0.00000000E+000
3.66030000E+000 1.60000000E+001 0.00000000E+000
5.00000000E+000 1.50000000E+001 0.00000000E+000
-2.50000000E+000 2.56700000E+001 0.00000000E+000
1.06220000E+000 1.85000000E+001 0.00000000E+000
-3.00000000E+000 2.82680000E+001 0.00000000E+000
-1.00000000E+000 2.13400000E+001 0.00000000E+000
2.79420000E+000 1.65000000E+001 0.00000000E+000
-1.50000000E+000 2.22060000E+001 0.00000000E+000
-6.69870000E-001 2.05000000E+001 0.00000000E+000
-3.00000000E+000 2.65360000E+001 0.00000000E+000
-2.00000000E+000 2.30720000E+001 0.00000000E+000
1.92820000E+000 1.70000000E+001 0.00000000E+000
1.96150000E-001 1.90000000E+001 0.00000000E+000
-2.50000000E+000 2.39380000E+001 0.00000000E+000
-3.58330000E+000 2.91120000E+001 0.00000000E+000
1.06220000E+000 1.75000000E+001 0.00000000E+000
-3.00000000E+000 2.48040000E+001 0.00000000E+000
-3.58330000E+000 2.73350000E+001 0.00000000E+000
3.66030000E+000 1.50000000E+001 0.00000000E+000
-6.69870000E-001 1.95000000E+001 0.00000000E+000
5.00000000E+000 1.40000000E+001 0.00000000E+000
2.79420000E+000 1.55000000E+001 0.00000000E+000
-4.00000000E+000 3.00000000E+001 0.00000000E+000
1.96150000E-001 1.80000000E+001 0.00000000E+000
-3.58330000E+000 2.57250000E+001 0.00000000E+000
-2.00000000E+000 2.13400000E+001 0.00000000E+000
-4.00000000E+000 2.82680000E+001 0.00000000E+000
1.92820000E+000 1.60000000E+001 0.00000000E+000
-2.50000000E+000 2.22060000E+001 0.00000000E+000
-1.52560000E+000 2.02400000E+001 0.00000000E+000
-3.00000000E+000 2.30720000E+001 0.00000000E+000
-4.03330000E+000 2.65190000E+001 0.00000000E+000
1.06220000E+000 1.65000000E+001 0.00000000E+000
-6.69870000E-001 1.85000000E+001 0.00000000E+000
-3.50000000E+000 2.39380000E+001 0.00000000E+000
3.66030000E+000 1.40000000E+001 0.00000000E+000
-4.00000000E+000 2.48040000E+001 0.00000000E+000
1.96150000E-001 1.70000000E+001 0.00000000E+000
5.00000000E+000 1.30000000E+001 0.00000000E+000
2.79420000E+000 1.45000000E+001 0.00000000E+000
-2.40190000E+000 2.05000000E+001 0.00000000E+000
-1.53590000E+000 1.90000000E+001 0.00000000E+000
1.92820000E+000 1.50000000E+001 0.00000000E+000
[...]
POINT_DATA      895
SCALARS Ux float
LOOKUP_TABLE default
1.00000000E+000
1.15683684E+000
1.00000000E+000
1.32810832E+000
1.54520709E+000
1.00000000E+000
1.71978939E+000
2.11586903E+000
1.00000000E+000
1.73047466E+000
2.36602905E+000
2.82839151E+000
1.00000000E+000
1.74043888E+000
3.04632103E+000
2.59212537E+000
3.68357762E+000
1.00000000E+000
2.17039557E+000
3.68663248E+000
3.28220654E+000
4.62753804E+000
1.00000000E+000
4.67504513E+000
2.65983903E+000
4.39374535E+000
3.90749590E+000
5.69626696E+000
1.00000000E+000
5.50478204E+000
3.49871425E+000
5.14676881E+000
2.43221765E+000
4.60654865E+000
6.58419720E+000
6.80409462E+000
1.00000000E+000
6.35694331E+000
3.84289025E+000
5.96109035E+000
2.50951639E+000
5.31012672E+000
7.60307335E+000
7.99745852E+000
1.00000000E+000
7.26384722E+000
4.44741327E+000
6.84983915E+000
8.62759678E+000
3.01720843E+000
8.50161034E+000
6.28014913E+000
9.19248036E+000
8.22564971E+000
1.00000000E+000
5.52661785E+000
7.82859577E+000
2.38684644E+000
9.71546898E+000
9.50625669E+000
7.29740502E+000
4.54269037E+000
1.03941535E+001
9.25374723E+000
1.00000000E+000
6.60491098E+000
1.07649822E+001
8.91478142E+000
1.06814627E+001
3.26706364E+000
1.05448180E+001
8.47936956E+000
5.70232554E+000
1.15631567E+001
1.03523829E+001
1.00000000E+000
1.17226692E+001
7.93104788E+000
1.01271883E+001
1.17007809E+001
4.48286792E+000
1.14833590E+001
9.85088260E+000
7.23535334E+000
1.26567783E+001
1.27391728E+001
1.00000000E+000
1.27276027E+001
1.19723308E+001
9.56344112E+000
1.14399691E+001
1.27271031E+001
5.67729097E+000
1.14146441E+001
9.33345174E+000
1.36706751E+001
1.28692735E+001
1.37215865E+001
1.00000000E+000
1.32847448E+001
1.14656990E+001
1.38019574E+001
1.39850875E+001
9.39312155E+000
1.41511778E+001
1.35489091E+001
1.30736303E+001
1.02706625E+001
1.17968918E+001
1.40452619E+001
1.45704641E+001
1.46263750E+001
1.44637076E+001
1.04724674E+001
1.48186847E+001
1.38714885E+001
1.26043257E+001
1.49853809E+001
1.57410352E+001
1.45851708E+001
1.51341252E+001
1.49295033E+001
1.35912953E+001
1.42537095E+001
1.52182602E+001
1.53289886E+001
1.54109898E+001
1.54633295E+001
1.43775522E+001
1.54829889E+001
1.56749238E+001
1.95656104E+001
1.55265893E+001
1.58318252E+001
1.71282310E+001
1.56742861E+001
1.59537655E+001
1.60756406E+001
1.58620095E+001
1.69523728E+001
1.61821089E+001
1.65213277E+001
1.59341287E+001
1.62722837E+001
1.73394550E+001
1.60337569E+001
2.25551892E+001
2.02251946E+001
1.72275316E+001
1.63491032E+001
1.71122254E+001
1.70382116E+001
1.79132223E+001
1.96372042E+001
1.62024662E+001
1.69819815E+001
1.64191517E+001
1.94901286E+001
1.69311478E+001
1.84459952E+001
1.63722731E+001
2.29082651E+001
2.50513240E+001
1.68830805E+001
1.96269032E+001
1.64836316E+001
1.83769563E+001
2.21622134E+001
1.80950449E+001
1.88968349E+001
1.68331623E+001
1.78605976E+001
2.17148678E+001
1.98692212E+001
1.76541705E+001
1.65849738E+001
2.15199841E+001
1.74632515E+001
1.68341602E+001
2.52609488E+001
2.01047961E+001
2.72138670E+001
2.44683797E+001
1.66335597E+001
2.14795390E+001
1.72977750E+001
1.92228619E+001
1.67510089E+001
2.38692377E+001
1.88094019E+001
1.99765617E+001
1.84347621E+001
1.71274205E+001
2.34604411E+001
2.14947914E+001
1.81032717E+001
2.73549057E+001
1.77719809E+001
2.31981252E+001
2.91378186E+001
2.65631146E+001
2.03137433E+001
2.14893618E+001
2.58964161E+001
1.98064250E+001
1.67222702E+001
1.67776474E+001
2.30181435E+001
1.68864659E+001
2.53631057E+001
1.93295836E+001
1.71041945E+001
1.87662658E+001
2.92016359E+001
2.14289469E+001
2.49474004E+001
1.74049739E+001
2.28577047E+001
2.84667791E+001
3.08707237E+001
1.77908105E+001
2.77812044E+001
2.46131926E+001
2.12560643E+001
2.71834508E+001
2.26677150E+001
1.83217539E+001
2.01086406E+001
2.43155229E+001
2.66717413E+001
1.89317067E+001
3.09320954E+001
2.24089161E+001
3.02080734E+001
2.62277593E+001
2.09892411E+001
2.40106629E+001
2.95258090E+001
3.24391231E+001
1.97054031E+001
2.89016535E+001
2.58222159E+001
2.83366225E+001
2.20555099E+001
2.36607159E+001
2.05771097E+001
2.54211921E+001
2.78220817E+001
3.24791132E+001
3.17960809E+001
3.11366120E+001
2.32345965E+001
2.73399330E+001
3.38629601E+001
2.15872544E+001
3.05105285E+001
2.49911413E+001
2.99223330E+001
2.68656746E+001
2.93684548E+001
2.27069328E+001
2.45013092E+001
3.38893100E+001
3.32499910E+001
2.88379864E+001
2.63719466E+001
3.26205832E+001
3.20085946E+001
3.51574345E+001
2.83138634E+001
3.14181886E+001
2.39241468E+001
2.58310604E+001
3.08485358E+001
2.77749055E+001
3.02931742E+001
2.52161521E+001
3.45796325E+001
3.51742522E+001
3.39852144E+001
3.33970047E+001
2.97403983E+001
2.71977381E+001
3.28186643E+001
3.63331685E+001
3.22504650E+001
2.91742896E+001
2.65580398E+001
3.16886031E+001
2.85759468E+001
3.11250573E+001
3.57928248E+001
3.52361951E+001
3.63428084E+001
3.46778788E+001
3.41211025E+001
3.05480238E+001
2.79245008E+001
3.35666234E+001
3.73981605E+001
3.30121774E+001
2.99426203E+001
3.24522016E+001
3.63782136E+001
3.68958420E+001
2.92916036E+001
3.58534059E+001
3.74019780E+001
3.18779465E+001
3.53243567E+001
3.47920824E+001
3.12778464E+001
3.42552505E+001
3.83588986E+001
3.37099157E+001
3.06379938E+001
3.31495122E+001
3.74152924E+001
3.69257211E+001
3.78939326E+001
3.64280739E+001
3.83576046E+001
3.59235932E+001
3.25650495E+001
3.54115695E+001
3.48891311E+001
3.19454311E+001
3.92210786E+001
3.43512230E+001
3.37907456E+001
3.78969521E+001
3.83510926E+001
3.74323908E+001
3.87917855E+001
3.69589739E+001
3.92149285E+001
3.64765037E+001
3.31988051E+001
3.59828535E+001
3.54739757E+001
3.99901119E+001
3.49440638E+001
3.87693662E+001
3.83378494E+001
3.91892272E+001
3.78967739E+001
3.95939289E+001
3.43858126E+001
3.74465084E+001
3.99789919E+001
3.69855226E+001
3.65104192E+001
3.60161677E+001
4.06715366E+001
3.54964535E+001
3.91454714E+001
3.95456030E+001
3.87361426E+001
3.99335875E+001
3.83187782E+001
4.03050561E+001
3.78924977E+001
4.06548721E+001
3.74543534E+001
3.69996442E+001
3.65224467E+001
4.12715310E+001
3.98569743E+001
3.94768946E+001
4.02289879E+001
3.90910877E+001
4.05887227E+001
3.86996594E+001
4.09302387E+001
3.83001641E+001
4.12475565E+001
3.78878732E+001
3.74566038E+001
4.17982411E+001
4.01197994E+001
4.04750924E+001
3.97618914E+001
4.08239419E+001
3.94031621E+001
4.11605257E+001
3.90422662E+001
4.14747066E+001
3.86743333E+001
4.17608193E+001
3.82921412E+001
4.22421005E+001
4.06670541E+001
4.03308880E+001
4.10038012E+001
3.99995197E+001
4.21316394E+001
3.96745475E+001
4.13705309E+001
3.93517274E+001
4.20285559E+001
3.90218298E+001
4.18033022E+001
4.24383174E+001
4.08003662E+001
4.11223754E+001
4.04867026E+001
4.26299307E+001
4.01899256E+001
4.14287662E+001
4.23936493E+001
3.99106776E+001
3.96367149E+001
4.18064570E+001
4.23109736E+001
4.27013398E+001
4.05805832E+001
4.09200348E+001
4.21950238E+001
4.13600097E+001
4.03375115E+001
4.29664358E+001
4.17480325E+001
4.01236472E+001
4.26564742E+001
4.20268008E+001
4.25450102E+001
4.29624302E+001
4.17990051E+001
4.12251181E+001
4.06181039E+001
4.04587855E+001
4.23795449E+001
4.32312934E+001
4.09138402E+001
4.28628925E+001
4.15604862E+001
4.32266047E+001
4.21493762E+001
4.27050098E+001
4.07040809E+001
4.05952939E+001
4.31404150E+001
4.18919627E+001
4.12618686E+001
4.24991961E+001
4.34710019E+001
4.29974556E+001
4.08857462E+001
4.15751089E+001
4.22280555E+001
4.34016744E+001
4.28061713E+001
4.03320688E+001
4.32607963E+001
4.19010412E+001
4.11894940E+001
4.25415534E+001
4.36480620E+001
4.36125203E+001
4.30823013E+001
3.94502486E+001
4.15098733E+001
4.22190005E+001
4.06990963E+001
4.34856596E+001
4.28375068E+001
3.85267708E+001
4.33322790E+001
4.00152309E+001
4.18245964E+001
4.10320408E+001
4.38093317E+001
4.25277675E+001
4.36764111E+001
4.31063772E+001
4.13519350E+001
4.04418817E+001
4.21542837E+001
3.75040105E+001
4.35431125E+001
3.92737076E+001
4.28161452E+001
4.33408968E+001
3.77582343E+001
4.16944497E+001
4.38458129E+001
4.07853813E+001
3.97356424E+001
4.39124832E+001
4.24547181E+001
3.63843680E+001
3.83184567E+001
4.37168175E+001
4.30794632E+001
4.11603785E+001
4.01208659E+001
4.20133702E+001
4.35443580E+001
3.68123459E+001
3.88832357E+001
4.27458325E+001
4.39316586E+001
3.51622170E+001
4.38588648E+001
4.33100706E+001
3.74117271E+001
4.05226029E+001
4.14916068E+001
4.39904086E+001
3.93434504E+001
4.23305662E+001
4.37187140E+001
3.79358223E+001
3.56677011E+001
4.29969743E+001
4.08837930E+001
3.97823726E+001
3.38381306E+001
4.39696023E+001
4.18152191E+001
3.63109401E+001
4.35083807E+001
3.84627527E+001
4.26110991E+001
3.44162304E+001
4.38562185E+001
4.32231296E+001
3.68863043E+001
4.02107459E+001
4.12668139E+001
3.89881324E+001
4.40450876E+001
3.51630793E+001
4.21466930E+001
3.24088941E+001
4.36769970E+001
3.74682488E+001
4.28773525E+001
3.33312122E+001
3.57560352E+001
4.06126872E+001
3.94180850E+001
4.34276732E+001
4.39666562E+001
4.16006073E+001
3.80528913E+001
4.24502730E+001
3.38863221E+001
4.38270878E+001
3.08728311E+001
4.31051118E+001
3.63005277E+001
3.98528905E+001
4.40482179E+001
4.09704387E+001
3.85204805E+001
3.19061891E+001
3.45138193E+001
4.19364709E+001
3.69798495E+001
4.35958823E+001
4.40181114E+001
4.27048309E+001
3.24864880E+001
3.50940476E+001
4.02475402E+001
3.89675163E+001
4.39160894E+001
4.33072734E+001
4.13497043E+001
2.92373932E+001
3.75212991E+001
4.22277408E+001
3.58389147E+001
3.31772250E+001
4.37413175E+001
3.00410672E+001
4.29463681E+001
3.94546240E+001
3.11942206E+001
4.06652817E+001
3.80739459E+001
3.40129185E+001
4.16670608E+001
3.65091821E+001
4.34952590E+001
4.25053829E+001
2.74959452E+001
3.17905315E+001
3.46014366E+001
4.31751004E+001
3.99084093E+001
3.85494830E+001
2.83780763E+001
4.10235499E+001
3.27051253E+001
3.70491674E+001
4.19896965E+001
3.53791334E+001
2.92465853E+001
4.27784589E+001
3.03272629E+001
3.90423182E+001
4.02909285E+001
3.75468741E+001
2.57037213E+001
3.33086205E+001
4.13850490E+001
3.59102979E+001
3.12149559E+001
4.23028035E+001
2.66137083E+001
3.40946932E+001
4.07053812E+001
3.94700747E+001
3.81089450E+001
2.75402419E+001
3.19150289E+001
3.64437485E+001
4.17447523E+001
2.38900134E+001
3.46769600E+001
2.84169755E+001
3.26996314E+001
3.85565118E+001
3.99259619E+001
3.70548371E+001
2.94843314E+001
4.11017790E+001
3.54236689E+001
3.03997749E+001
2.44244412E+001
3.33824043E+001
2.20624122E+001
3.90740516E+001
3.12097071E+001
4.03705010E+001
2.56008975E+001
3.75494854E+001
2.28732825E+001
3.59431770E+001
3.41451369E+001
2.66044095E+001
3.19686271E+001
3.81118338E+001
3.95487660E+001
3.64504506E+001
2.02272915E+001
3.47065359E+001
2.86922786E+001
2.96239760E+001
3.27668196E+001
2.75352813E+001
2.11631039E+001
3.86339505E+001
3.70765369E+001
2.23426609E+001
2.35939795E+001
3.04337468E+001
3.35201951E+001
3.52454433E+001
1.83886430E+001
2.46530076E+001
1.93296300E+001
3.11377078E+001
3.76247609E+001
2.57345771E+001
3.59272531E+001
3.41487904E+001
2.68650966E+001
2.82138307E+001
2.02665388E+001
3.20904009E+001
2.16518923E+001
1.65454152E+001
3.65191331E+001
2.26950924E+001
1.74953137E+001
3.47078897E+001
3.27811015E+001
2.91746648E+001
2.38589797E+001
1.83652719E+001
1.46971829E+001
2.48837026E+001
3.53167121E+001
1.96152853E+001
3.33703717E+001
1.56559792E+001
3.01941409E+001
3.12974584E+001
2.59573324E+001
2.08181502E+001
1.65529469E+001
1.28363596E+001
2.18767312E+001
2.69386380E+001
3.40317990E+001
1.36190374E+001
3.19984836E+001
2.30298380E+001
2.81338953E+001
1.74310078E+001
2.40740528E+001
1.09385331E+001
1.86207563E+001
3.26861871E+001
3.03204529E+001
1.19599791E+001
1.98029975E+001
2.87623757E+001
2.62554766E+001
1.51500051E+001
2.07630104E+001
2.44010630E+001
8.96566825E+000
1.29485690E+001
3.12877831E+001
2.20960981E+001
9.85370514E+000
1.61430968E+001
2.70984761E+001
2.90533707E+001
1.76600157E+001
6.81260041E+000
1.87648404E+001
2.24327323E+001
8.09351680E+000
2.98446381E+001
2.76165771E+001
9.58389192E+000
2.52733521E+001
4.18312569E+000
2.33197552E+001
1.32541092E+001
5.71196902E+000
2.83642524E+001
1.88064027E+001
1.48356105E+001
2.60889968E+001
2.03250570E+001
5.06955589E-014
1.67033854E+001
3.79714054E+000
2.13084328E+001
2.36590992E+001
1.01706196E+001
6.18460275E+000
2.68502188E+001
2.45386201E+001
4.81142903E-014
1.93939880E+000
1.26591373E+001
2.21365803E+001
7.72018168E+000
1.66137350E+001
2.53098563E+001
1.07048237E+001
1.47273657E+001
3.94406729E-014
1.92075812E+001
2.29669594E+001
3.54558177E+000
1.79201614E+000
1.74216872E+001
2.05479982E+001
1.27659033E+001
8.42186932E+000
2.37469926E+001
1.25261024E+000
3.46944695E-014
2.13789464E+001
1.07984011E+001
5.39024208E+000
1.47058692E+001
9.65945721E-001
2.21636305E+001
2.40137991E+000
8.83038667E+000
1.27504477E+001
1.43218770E-014
1.97753164E+001
1.52762978E+001
1.73440795E+001
1.08333610E+001
6.77746346E+000
9.01479575E-001
2.05662512E+001
2.13162821E-014
8.97688601E+000
4.97195921E+000
1.79950627E+001
1.80338409E+000
1.26906084E+001
8.16706375E-001
1.89528873E+001
7.18856441E+000
1.06931377E+001
3.07310613E+000
8.21565038E-015
1.65349946E+001
1.41058974E+001
8.85866893E+000
5.47358456E+000
5.98316778E-001
1.73302991E+001
1.44856241E+000
7.22639472E+000
2.85327317E-014
1.03931706E+001
1.47170767E+001
3.95063400E+000
6.92278534E-001
1.56886950E+001
8.59934289E+000
5.63032711E+000
1.13539442E+001
1.32229546E+001
3.95239397E-014
7.74653792E-001
6.99787970E+000
1.40252502E+001
4.23059162E+000
1.14371027E+001
1.56086982E+000
4.46309656E-014
6.17875495E-001
1.23271053E+001
5.27451937E+000
2.57164642E+000
9.74396991E+000
6.29234810E+000
7.52068149E+000
4.06375803E+000
5.43100211E-001
4.39648318E-014
1.05660184E+001
2.77938674E+000
7.67264396E+000
5.80389013E-001
1.22414637E+000
8.71189781E+000
3.46389584E-014
4.19431665E+000
4.81911937E+000
5.70316664E+000
1.55075688E+000
2.76914028E+000
4.73577554E-001
6.65469535E+000
3.17714372E+000
7.06101844E-014
3.72966094E+000
6.33481034E-001
3.03647418E+000
1.44822037E+000
4.12877356E+000
4.44089210E-014
2.34629979E+000
6.68185210E-001
3.55271368E-014
2.19920697E+000
2.84217094E-014
1.42329209E+000
5.61403201E-001
1.27890505E+000
1.24867801E+000
1.06581410E-014
1.41176622E+000
1.55419162E+000
5.10905728E-001
1.25455159E+000
6.92779167E-014
5.70962668E-001
5.50670620E-014
9.05920043E-001
3.19744231E-014
9.73289088E-001
4.88393301E-001
5.97733198E-001
4.97379915E-014
7.46655106E-001
6.92779167E-014
6.96030188E-001
5.66720127E-001
5.34927256E-001
5.86197757E-014
1.42108547E-014
1.24344979E-014
4.08562073E-014
4.26325641E-014
3.55271368E-014
3.55271368E-014
2.13162821E-014
2.84217094E-014
