# vtk DataFile Version 1.0
ECM-CELL DIFFUSION-MECHANICS
ASCII

DATASET UNSTRUCTURED_GRID
POINTS      250 float
1.50000000E+001 3.00000000E+001 0.00000000E+000
1.30000000E+001 3.00000000E+001 0.00000000E+000
1.35710000E+001 2.85710000E+001 0.00000000E+000
1.10000000E+001 3.00000000E+001 0.00000000E+000
1.21430000E+001 2.71430000E+001 0.00000000E+000
1.00000000E+001 2.82680000E+001 0.00000000E+000
9.00000000E+000 3.00000000E+001 0.00000000E+000
1.07140000E+001 2.57140000E+001 0.00000000E+000
8.33460000E+000 2.83710000E+001 0.00000000E+000
9.00000000E+000 2.65360000E+001 0.00000000E+000
7.00000000E+000 3.00000000E+001 0.00000000E+000
9.28570000E+000 2.42860000E+001 0.00000000E+000
6.67280000E+000 2.70530000E+001 0.00000000E+000
6.77880000E+000 2.50540000E+001 0.00000000E+000
5.00000000E+000 3.00000000E+001 0.00000000E+000
7.85710000E+000 2.28570000E+001 0.00000000E+000
4.98060000E+000 2.83140000E+001 0.00000000E+000
4.99670000E+000 2.59620000E+001 0.00000000E+000
5.51920000E+000 2.37580000E+001 0.00000000E+000
3.00000000E+000 3.00000000E+001 0.00000000E+000
6.42860000E+000 2.14290000E+001 0.00000000E+000
3.21410000E+000 2.68670000E+001 0.00000000E+000
3.32000000E+000 2.48730000E+001 0.00000000E+000
3.73370000E+000 2.23710000E+001 0.00000000E+000
1.30180000E+000 2.77520000E+001 0.00000000E+000
1.00000000E+000 3.00000000E+001 0.00000000E+000
1.54580000E+000 2.57700000E+001 0.00000000E+000
5.00000000E+000 2.00000000E+001 0.00000000E+000
1.63350000E+000 2.38210000E+001 0.00000000E+000
3.01190000E+000 2.06780000E+001 0.00000000E+000
-1.62660000E-001 2.85160000E+001 0.00000000E+000
5.00000000E+000 1.80000000E+001 0.00000000E+000
1.64040000E+000 2.18300000E+001 0.00000000E+000
-2.86270000E-001 2.65410000E+001 0.00000000E+000
4.06420000E-003 2.45740000E+001 0.00000000E+000
-1.00000000E+000 3.00000000E+001 0.00000000E+000
3.39280000E+000 1.88640000E+001 0.00000000E+000
1.68240000E+000 1.98910000E+001 0.00000000E+000
-1.86220000E-001 2.26080000E+001 0.00000000E+000
5.00000000E+000 1.60000000E+001 0.00000000E+000
-1.66170000E+000 2.56700000E+001 0.00000000E+000
-2.08720000E+000 2.78760000E+001 0.00000000E+000
3.29410000E+000 1.68880000E+001 0.00000000E+000
1.05170000E-001 2.06440000E+001 0.00000000E+000
-1.75690000E+000 2.36790000E+001 0.00000000E+000
-3.00000000E+000 3.00000000E+001 0.00000000E+000
1.66700000E+000 1.78960000E+001 0.00000000E+000
-1.52380000E+000 2.17920000E+001 0.00000000E+000
3.66030000E+000 1.50000000E+001 0.00000000E+000
-3.49950000E+000 2.64040000E+001 0.00000000E+000
5.00000000E+000 1.40000000E+001 0.00000000E+000
-1.62270000E-001 1.86910000E+001 0.00000000E+000
1.92820000E+000 1.60000000E+001 0.00000000E+000
-3.57130000E+000 2.45060000E+001 0.00000000E+000
-1.67830000E+000 1.98050000E+001 0.00000000E+000
-3.35940000E+000 2.25230000E+001 0.00000000E+000
8.17720000E-002 1.67120000E+001 0.00000000E+000
-5.00000000E+000 3.00000000E+001 0.00000000E+000
-5.00000000E+000 2.80000000E+001 0.00000000E+000
-1.42460000E+000 1.79410000E+001 0.00000000E+000
-5.00000000E+000 2.60000000E+001 0.00000000E+000
3.66030000E+000 1.30000000E+001 0.00000000E+000
5.00000000E+000 1.20000000E+001 0.00000000E+000
1.92820000E+000 1.40000000E+001 0.00000000E+000
-3.49740000E+000 2.06190000E+001 0.00000000E+000
-5.00000000E+000 2.40000000E+001 0.00000000E+000
1.96150000E-001 1.50000000E+001 0.00000000E+000
-3.26770000E+000 1.86400000E+001 0.00000000E+000
-5.00000000E+000 2.20000000E+001 0.00000000E+000
-1.53590000E+000 1.60000000E+001 0.00000000E+000
3.29410000E+000 1.11120000E+001 0.00000000E+000
1.92820000E+000 1.20000000E+001 0.00000000E+000
5.00000000E+000 1.00000000E+001 0.00000000E+000
-5.00000000E+000 2.00000000E+001 0.00000000E+000
-3.26790000E+000 1.70000000E+001 0.00000000E+000
1.96150000E-001 1.30000000E+001 0.00000000E+000
-1.53590000E+000 1.40000000E+001 0.00000000E+000
-5.00000000E+000 1.80000000E+001 0.00000000E+000
-3.26790000E+000 1.50000000E+001 0.00000000E+000
3.39280000E+000 9.13560000E+000 0.00000000E+000
1.66700000E+000 1.01040000E+001 0.00000000E+000
1.96150000E-001 1.10000000E+001 0.00000000E+000
5.00000000E+000 8.00000000E+000 0.00000000E+000
-5.00000000E+000 1.60000000E+001 0.00000000E+000
-1.53590000E+000 1.20000000E+001 0.00000000E+000
-3.26790000E+000 1.30000000E+001 0.00000000E+000
1.97120000E+000 8.16660000E+000 0.00000000E+000
3.65760000E+000 7.21990000E+000 0.00000000E+000
-5.00000000E+000 1.40000000E+001 0.00000000E+000
1.96150000E-001 9.00000000E+000 0.00000000E+000
-1.53590000E+000 1.00000000E+001 0.00000000E+000
5.00000000E+000 6.00000000E+000 0.00000000E+000
-3.26790000E+000 1.10000000E+001 0.00000000E+000
-5.00000000E+000 1.20000000E+001 0.00000000E+000
1.96650000E+000 6.18290000E+000 0.00000000E+000
1.96150000E-001 7.00000000E+000 0.00000000E+000
3.16390000E+000 5.32810000E+000 0.00000000E+000
-1.53590000E+000 8.00000000E+000 0.00000000E+000
-3.26790000E+000 9.00000000E+000 0.00000000E+000
5.00000000E+000 4.00000000E+000 0.00000000E+000
-5.00000000E+000 1.00000000E+001 0.00000000E+000
-1.64130000E-001 5.36050000E+000 0.00000000E+000
1.55890000E+000 4.34580000E+000 0.00000000E+000
3.26550000E+000 3.35960000E+000 0.00000000E+000
-1.53590000E+000 6.00000000E+000 0.00000000E+000
-3.26790000E+000 7.00000000E+000 0.00000000E+000
-5.00000000E+000 8.00000000E+000 0.00000000E+000
5.00000000E+000 2.00000000E+000 0.00000000E+000
-1.79790000E-001 3.36100000E+000 0.00000000E+000
-1.58190000E+000 4.11040000E+000 0.00000000E+000
1.54560000E+000 2.35300000E+000 0.00000000E+000
-3.29040000E+000 5.09730000E+000 0.00000000E+000
3.28040000E+000 1.36140000E+000 0.00000000E+000
-5.00000000E+000 6.00000000E+000 0.00000000E+000
5.00000000E+000 1.77640000E-015 0.00000000E+000
-1.90780000E-001 1.36140000E+000 0.00000000E+000
-1.69730000E+000 2.20820000E+000 0.00000000E+000
-3.36850000E+000 3.26420000E+000 0.00000000E+000
1.55350000E+000 3.53500000E-001 0.00000000E+000
3.34310000E+000 -5.18540000E-001 0.00000000E+000
-5.00000000E+000 4.00000000E+000 0.00000000E+000
5.00000000E+000 -2.00000000E+000 0.00000000E+000
-1.94220000E-002 -6.15240000E-001 0.00000000E+000
-3.47490000E+000 1.32680000E+000 0.00000000E+000
-1.79270000E+000 2.74870000E-001 0.00000000E+000
1.67530000E+000 -1.60560000E+000 0.00000000E+000
-5.00000000E+000 2.00000000E+000 0.00000000E+000
3.45500000E+000 -2.51310000E+000 0.00000000E+000
5.00000000E+000 -4.00000000E+000 0.00000000E+000
-1.68310000E+000 -1.71820000E+000 0.00000000E+000
-3.55210000E+000 -6.67730000E-001 0.00000000E+000
-4.59510000E-002 -2.60590000E+000 0.00000000E+000
-5.00000000E+000 0.00000000E+000 0.00000000E+000
1.68490000E+000 -3.60330000E+000 0.00000000E+000
3.46880000E+000 -4.49200000E+000 0.00000000E+000
-7.09430000E+000 0.00000000E+000 0.00000000E+000
-3.25050000E+000 -2.51340000E+000 0.00000000E+000
5.00000000E+000 -6.00000000E+000 0.00000000E+000
-1.76770000E+000 -3.60690000E+000 0.00000000E+000
8.21130000E-002 -4.59340000E+000 0.00000000E+000
1.79380000E+000 -5.57190000E+000 0.00000000E+000
-5.30340000E+000 -2.22580000E+000 0.00000000E+000
3.56980000E+000 -6.48770000E+000 0.00000000E+000
-9.18850000E+000 0.00000000E+000 0.00000000E+000
-7.42780000E+000 -1.97660000E+000 0.00000000E+000
-3.94620000E+000 -4.34830000E+000 0.00000000E+000
5.00000000E+000 -8.00000000E+000 0.00000000E+000
-1.59430000E+000 -5.68020000E+000 0.00000000E+000
7.83180000E-002 -6.58640000E+000 0.00000000E+000
-1.12830000E+001 0.00000000E+000 0.00000000E+000
2.06070000E+000 -7.86590000E+000 0.00000000E+000
-6.55970000E+000 -3.82580000E+000 0.00000000E+000
-9.42160000E+000 -1.83740000E+000 0.00000000E+000
-3.32070000E+000 -6.67820000E+000 0.00000000E+000
-8.54890000E+000 -3.63120000E+000 0.00000000E+000
5.94800000E-002 -8.41540000E+000 0.00000000E+000
5.00000000E+000 -1.00000000E+001 0.00000000E+000
-5.73670000E+000 -5.64820000E+000 0.00000000E+000
-1.33770000E+001 0.00000000E+000 0.00000000E+000
-1.47150000E+000 -7.92040000E+000 0.00000000E+000
-1.18970000E+001 -1.72300000E+000 0.00000000E+000
2.97460000E+000 -1.00000000E+001 0.00000000E+000
-7.72640000E+000 -5.44860000E+000 0.00000000E+000
-1.06310000E+001 -3.47470000E+000 0.00000000E+000
9.49180000E-001 -1.00000000E+001 0.00000000E+000
-1.54710000E+001 0.00000000E+000 0.00000000E+000
-4.77050000E+000 -8.02110000E+000 0.00000000E+000
-9.70970000E+000 -5.23440000E+000 0.00000000E+000
-1.07620000E+000 -1.00000000E+001 0.00000000E+000
-1.42680000E+001 -1.68530000E+000 0.00000000E+000
-1.25070000E+001 -3.31520000E+000 0.00000000E+000
-6.56660000E+000 -7.77900000E+000 0.00000000E+000
-3.10160000E+000 -1.00000000E+001 0.00000000E+000
-1.17000000E+001 -5.10700000E+000 0.00000000E+000
-1.74240000E+001 0.00000000E+000 0.00000000E+000
-8.81870000E+000 -7.65770000E+000 0.00000000E+000
-1.64480000E+001 -1.73210000E+000 0.00000000E+000
-5.12710000E+000 -1.00000000E+001 0.00000000E+000
-1.52670000E+001 -3.29220000E+000 0.00000000E+000
-1.08890000E+001 -6.97060000E+000 0.00000000E+000
-1.35520000E+001 -4.97920000E+000 0.00000000E+000
-1.92270000E+001 0.00000000E+000 0.00000000E+000
-7.15250000E+000 -1.00000000E+001 0.00000000E+000
-1.83260000E+001 -1.73210000E+000 0.00000000E+000
-1.27360000E+001 -6.79090000E+000 0.00000000E+000
-1.02280000E+001 -8.76580000E+000 0.00000000E+000
-1.72210000E+001 -3.38040000E+000 0.00000000E+000
-1.55920000E+001 -4.88780000E+000 0.00000000E+000
-9.17790000E+000 -1.00000000E+001 0.00000000E+000
-2.08820000E+001 0.00000000E+000 0.00000000E+000
-1.21420000E+001 -8.26790000E+000 0.00000000E+000
-1.46760000E+001 -6.61790000E+000 0.00000000E+000
-2.00550000E+001 -1.71810000E+000 0.00000000E+000
-1.75740000E+001 -4.86730000E+000 0.00000000E+000
-1.11860000E+001 -1.00000000E+001 0.00000000E+000
-1.92040000E+001 -3.45710000E+000 0.00000000E+000
-2.23910000E+001 0.00000000E+000 0.00000000E+000
-1.40050000E+001 -8.26790000E+000 0.00000000E+000
-1.66560000E+001 -6.56010000E+000 0.00000000E+000
-2.16360000E+001 -1.56770000E+000 0.00000000E+000
-1.30980000E+001 -1.00000000E+001 0.00000000E+000
-2.37620000E+001 0.00000000E+000 0.00000000E+000
[...]
POINT_DATA      250
SCALARS Ux float
LOOKUP_TABLE default
1.00000000E+000
9.98413337E-001
1.00000000E+000
9.94302289E-001
1.00000000E+000
9.92419133E-001
9.87696325E-001
1.00000000E+000
9.85629563E-001
9.91526693E-001
9.78333522E-001
1.00000000E+000
9.78473745E-001
9.83159135E-001
9.67556309E-001
1.00000000E+000
9.67686908E-001
9.69000343E-001
9.76946834E-001
9.56108271E-001
1.00000000E+000
9.56523934E-001
9.55944162E-001
9.58390771E-001
9.45647974E-001
9.45306598E-001
9.43807590E-001
1.00000000E+000
9.38672322E-001
9.40263021E-001
9.39230830E-001
9.00291644E-001
9.28499095E-001
9.35137478E-001
9.29935580E-001
9.36810405E-001
9.14287914E-001
9.08314013E-001
9.17340098E-001
8.44070621E-001
9.26501123E-001
9.31303860E-001
8.62072707E-001
9.01527217E-001
9.15862904E-001
9.31455423E-001
8.73204722E-001
9.02284742E-001
8.19112649E-001
9.24445471E-001
7.98088648E-001
8.73080397E-001
8.35761390E-001
9.15512541E-001
8.79863538E-001
9.02075411E-001
8.41113894E-001
9.29305234E-001
9.27155044E-001
8.54910104E-001
9.21604875E-001
7.76261148E-001
7.56150478E-001
7.94363409E-001
8.83287583E-001
9.11157286E-001
8.09633303E-001
8.59209922E-001
8.95688328E-001
8.22739178E-001
7.37704073E-001
7.54155773E-001
7.16209410E-001
8.74713748E-001
8.35080017E-001
7.71256350E-001
7.87044903E-001
8.48585341E-001
8.02208495E-001
6.98990128E-001
7.16647030E-001
7.32577300E-001
6.77568088E-001
8.17839993E-001
7.49763414E-001
7.66668781E-001
6.79445199E-001
6.62542437E-001
7.83877865E-001
6.93887567E-001
7.11588197E-001
6.40208036E-001
7.29445022E-001
7.47672833E-001
6.41879380E-001
6.55281254E-001
6.27243837E-001
6.72810808E-001
6.91045133E-001
6.04466798E-001
7.09931662E-001
6.23254600E-001
6.07355522E-001
5.92506907E-001
6.33504703E-001
6.51558067E-001
6.70936935E-001
5.71106930E-001
5.85108567E-001
5.95706249E-001
5.72100950E-001
6.12623706E-001
5.59770524E-001
6.30483675E-001
5.41079130E-001
5.48567477E-001
5.56903188E-001
5.72899307E-001
5.39756732E-001
5.32425712E-001
5.87523543E-001
5.15484612E-001
5.17365666E-001
5.26734717E-001
5.18763190E-001
5.13024708E-001
5.38595752E-001
5.08137238E-001
4.95048404E-001
4.87726589E-001
4.80974930E-001
4.90860434E-001
4.66676842E-001
4.90875323E-001
4.89190903E-001
3.96813905E-001
4.58329267E-001
4.80319452E-001
4.64587438E-001
4.72369182E-001
4.75416614E-001
4.26994497E-001
4.75981332E-001
3.45151852E-001
3.80934865E-001
4.30534776E-001
4.72060576E-001
4.49817171E-001
4.59435836E-001
3.00054129E-001
4.65711911E-001
3.90000566E-001
3.37781550E-001
4.24537421E-001
3.51600865E-001
4.52533798E-001
4.68723033E-001
3.94815468E-001
2.57331202E-001
4.40870031E-001
2.86664243E-001
4.65300177E-001
3.61469235E-001
3.10410595E-001
4.56453535E-001
2.15671042E-001
4.01351153E-001
3.25296354E-001
4.41351311E-001
2.39285968E-001
2.73347381E-001
3.74919855E-001
4.19691606E-001
2.87452156E-001
1.77202189E-001
3.37349175E-001
1.96333079E-001
3.94037878E-001
2.19170071E-001
3.00791487E-001
2.51823172E-001
1.41645557E-001
3.63451999E-001
1.59556393E-001
2.66290026E-001
3.11431117E-001
1.81108826E-001
2.12371276E-001
3.29523643E-001
1.08423193E-001
2.76642743E-001
2.29405675E-001
1.25637528E-001
1.74097975E-001
2.93821729E-001
1.42778052E-001
7.63095911E-002
2.41640172E-001
1.91412889E-001
9.41465003E-002
2.58464089E-001
4.13147850E-002
1.08325155E-001
2.07989251E-001
6.46072771E-002
1.28384753E-001
1.59061992E-001
2.24203362E-001
2.94902991E-017
8.00123671E-002
1.75918871E-001
9.19449119E-002
4.16333634E-017
1.91374328E-001
1.82078374E-002
1.45430380E-001
4.58915300E-002
1.11756427E-001
1.60070497E-001
5.98479599E-017
5.91679387E-002
1.16505811E-001
9.97299543E-003
1.30266128E-001
2.25514052E-017
2.43208194E-002
8.88039325E-002
5.83684093E-002
1.01644917E-001
7.10503432E-003
-8.67361738E-018
5.86598590E-002
7.34567320E-002
2.22648491E-002
2.77555756E-017
3.37378601E-002
4.31384225E-002
6.66280284E-003
2.25514052E-017
1.41248738E-002
2.08166817E-017
7.05631263E-003
6.24500451E-017
7.10838219E-003
-2.62376926E-017
0.00000000E+000
3.55618313E-017
6.93889390E-018
1.04083409E-017
-0.00000000E+000
