# vtk DataFile Version 1.0
ECM-CELL DIFFUSION-MECHANICS
ASCII

DATASET UNSTRUCTURED_GRID
POINTS    10383 float
1.50000000E+001 3.00000000E+001 0.00000000E+000
1.47500000E+001 3.00000000E+001 0.00000000E+000
1.48210000E+001 2.98210000E+001 0.00000000E+000
1.45000000E+001 3.00000000E+001 0.00000000E+000
1.46430000E+001 2.96430000E+001 0.00000000E+000
1.44570000E+001 2.98780000E+001 0.00000000E+000
1.45280000E+001 2.97000000E+001 0.00000000E+000
1.44130000E+001 2.97570000E+001 0.00000000E+000
1.42500000E+001 3.00000000E+001 0.00000000E+000
1.44640000E+001 2.94640000E+001 0.00000000E+000
1.42550000E+001 2.96920000E+001 0.00000000E+000
1.40480000E+001 2.98140000E+001 0.00000000E+000
1.41910000E+001 2.94560000E+001 0.00000000E+000
1.40970000E+001 2.96270000E+001 0.00000000E+000
1.40000000E+001 3.00000000E+001 0.00000000E+000
1.42860000E+001 2.92860000E+001 0.00000000E+000
1.38930000E+001 2.95420000E+001 0.00000000E+000
1.37500000E+001 3.00000000E+001 0.00000000E+000
1.41070000E+001 2.91070000E+001 0.00000000E+000
1.36890000E+001 2.94560000E+001 0.00000000E+000
1.35950000E+001 2.97280000E+001 0.00000000E+000
1.38090000E+001 2.91920000E+001 0.00000000E+000
1.35000000E+001 3.00000000E+001 0.00000000E+000
1.39290000E+001 2.89290000E+001 0.00000000E+000
1.34600000E+001 2.93630000E+001 0.00000000E+000
1.32500000E+001 3.00000000E+001 0.00000000E+000
1.37500000E+001 2.87500000E+001 0.00000000E+000
1.32310000E+001 2.92690000E+001 0.00000000E+000
1.31150000E+001 2.96350000E+001 0.00000000E+000
1.34010000E+001 2.89200000E+001 0.00000000E+000
1.30000000E+001 3.00000000E+001 0.00000000E+000
1.35710000E+001 2.85710000E+001 0.00000000E+000
1.29450000E+001 2.91470000E+001 0.00000000E+000
1.27500000E+001 3.00000000E+001 0.00000000E+000
1.33930000E+001 2.83930000E+001 0.00000000E+000
1.25800000E+001 2.95120000E+001 0.00000000E+000
1.29370000E+001 2.86190000E+001 0.00000000E+000
1.25000000E+001 3.00000000E+001 0.00000000E+000
1.32140000E+001 2.82140000E+001 0.00000000E+000
1.26590000E+001 2.90240000E+001 0.00000000E+000
1.22500000E+001 3.00000000E+001 0.00000000E+000
1.30360000E+001 2.80360000E+001 0.00000000E+000
1.23220000E+001 2.91480000E+001 0.00000000E+000
1.25010000E+001 2.86920000E+001 0.00000000E+000
1.20000000E+001 3.00000000E+001 0.00000000E+000
1.19920000E+001 2.96360000E+001 0.00000000E+000
1.28570000E+001 2.78570000E+001 0.00000000E+000
1.26000000E+001 2.81080000E+001 0.00000000E+000
1.19850000E+001 2.92710000E+001 0.00000000E+000
1.23430000E+001 2.83590000E+001 0.00000000E+000
1.17500000E+001 3.00000000E+001 0.00000000E+000
1.18990000E+001 2.89680000E+001 0.00000000E+000
1.20790000E+001 2.85120000E+001 0.00000000E+000
1.26790000E+001 2.76790000E+001 0.00000000E+000
1.17130000E+001 2.93290000E+001 0.00000000E+000
1.21950000E+001 2.81210000E+001 0.00000000E+000
1.18140000E+001 2.86650000E+001 0.00000000E+000
1.15000000E+001 3.00000000E+001 0.00000000E+000
1.25000000E+001 2.75000000E+001 0.00000000E+000
1.14710000E+001 2.96930000E+001 0.00000000E+000
1.22730000E+001 2.76910000E+001 0.00000000E+000
1.14410000E+001 2.93860000E+001 0.00000000E+000
1.20460000E+001 2.78820000E+001 0.00000000E+000
1.15700000E+001 2.87530000E+001 0.00000000E+000
1.17060000E+001 2.84240000E+001 0.00000000E+000
1.13840000E+001 2.91130000E+001 0.00000000E+000
1.18220000E+001 2.80320000E+001 0.00000000E+000
1.12500000E+001 3.00000000E+001 0.00000000E+000
1.23210000E+001 2.73210000E+001 0.00000000E+000
1.13260000E+001 2.88400000E+001 0.00000000E+000
1.11910000E+001 2.94170000E+001 0.00000000E+000
1.15980000E+001 2.81820000E+001 0.00000000E+000
1.18930000E+001 2.76850000E+001 0.00000000E+000
1.12550000E+001 2.86140000E+001 0.00000000E+000
1.13910000E+001 2.82850000E+001 0.00000000E+000
1.10000000E+001 3.00000000E+001 0.00000000E+000
1.09710000E+001 2.97240000E+001 0.00000000E+000
1.21430000E+001 2.71430000E+001 0.00000000E+000
1.10970000E+001 2.88900000E+001 0.00000000E+000
1.14770000E+001 2.79840000E+001 0.00000000E+000
1.19420000E+001 2.73150000E+001 0.00000000E+000
1.09410000E+001 2.94480000E+001 0.00000000E+000
1.17410000E+001 2.74870000E+001 0.00000000E+000
1.11840000E+001 2.83880000E+001 0.00000000E+000
1.09050000E+001 2.91940000E+001 0.00000000E+000
1.15490000E+001 2.76360000E+001 0.00000000E+000
1.07500000E+001 3.00000000E+001 0.00000000E+000
1.13560000E+001 2.77850000E+001 0.00000000E+000
1.08680000E+001 2.89400000E+001 0.00000000E+000
1.11000000E+001 2.82100000E+001 0.00000000E+000
1.19640000E+001 2.69640000E+001 0.00000000E+000
1.09930000E+001 2.84470000E+001 0.00000000E+000
1.06960000E+001 2.94640000E+001 0.00000000E+000
1.11870000E+001 2.79090000E+001 0.00000000E+000
1.15820000E+001 2.73060000E+001 0.00000000E+000
1.08350000E+001 2.87230000E+001 0.00000000E+000
1.10170000E+001 2.80320000E+001 0.00000000E+000
1.08020000E+001 2.85070000E+001 0.00000000E+000
1.12150000E+001 2.76150000E+001 0.00000000E+000
1.06350000E+001 2.89600000E+001 0.00000000E+000
1.05000000E+001 3.00000000E+001 0.00000000E+000
1.08960000E+001 2.81200000E+001 0.00000000E+000
1.07880000E+001 2.83570000E+001 0.00000000E+000
1.04760000E+001 2.97400000E+001 0.00000000E+000
1.17860000E+001 2.67860000E+001 0.00000000E+000
1.16050000E+001 2.69550000E+001 0.00000000E+000
1.04510000E+001 2.94790000E+001 0.00000000E+000
1.14230000E+001 2.71240000E+001 0.00000000E+000
1.07740000E+001 2.82080000E+001 0.00000000E+000
1.08860000E+001 2.78950000E+001 0.00000000E+000
1.12490000E+001 2.72840000E+001 0.00000000E+000
1.04260000E+001 2.92300000E+001 0.00000000E+000
1.05940000E+001 2.85060000E+001 0.00000000E+000
1.10740000E+001 2.74450000E+001 0.00000000E+000
1.04010000E+001 2.89800000E+001 0.00000000E+000
1.09140000E+001 2.76020000E+001 0.00000000E+000
1.06390000E+001 2.81470000E+001 0.00000000E+000
1.02500000E+001 3.00000000E+001 0.00000000E+000
1.03930000E+001 2.87430000E+001 0.00000000E+000
1.16070000E+001 2.66070000E+001 0.00000000E+000
1.07540000E+001 2.77590000E+001 0.00000000E+000
1.02040000E+001 2.94920000E+001 0.00000000E+000
1.12580000E+001 2.69500000E+001 0.00000000E+000
1.06290000E+001 2.79220000E+001 0.00000000E+000
1.03850000E+001 2.85050000E+001 0.00000000E+000
1.04450000E+001 2.82950000E+001 0.00000000E+000
1.05040000E+001 2.80860000E+001 0.00000000E+000
1.09150000E+001 2.72810000E+001 0.00000000E+000
1.01540000E+001 2.89930000E+001 0.00000000E+000
1.00000000E+001 3.00000000E+001 0.00000000E+000
1.05870000E+001 2.76180000E+001 0.00000000E+000
9.97800000E+000 2.97520000E+001 0.00000000E+000
1.14290000E+001 2.64290000E+001 0.00000000E+000
1.12610000E+001 2.66030000E+001 0.00000000E+000
1.10930000E+001 2.67760000E+001 0.00000000E+000
9.95600000E+000 2.95040000E+001 0.00000000E+000
1.09240000E+001 2.69470000E+001 0.00000000E+000
1.03000000E+001 2.79870000E+001 0.00000000E+000
1.01100000E+001 2.84800000E+001 0.00000000E+000
9.93140000E+000 2.92550000E+001 0.00000000E+000
1.07560000E+001 2.71170000E+001 0.00000000E+000
1.05870000E+001 2.72970000E+001 0.00000000E+000
9.90680000E+000 2.90060000E+001 0.00000000E+000
1.04190000E+001 2.74770000E+001 0.00000000E+000
9.75000000E+000 3.00000000E+001 0.00000000E+000
1.02570000E+001 2.76820000E+001 0.00000000E+000
9.87050000E+000 2.87300000E+001 0.00000000E+000
1.12500000E+001 2.62500000E+001 0.00000000E+000
1.09220000E+001 2.66010000E+001 0.00000000E+000
9.71100000E+000 2.95180000E+001 0.00000000E+000
1.00960000E+001 2.78880000E+001 0.00000000E+000
9.96490000E+000 2.81710000E+001 0.00000000E+000
1.05870000E+001 2.69490000E+001 0.00000000E+000
9.83430000E+000 2.84540000E+001 0.00000000E+000
9.68030000E+000 2.90460000E+001 0.00000000E+000
1.02440000E+001 2.73100000E+001 0.00000000E+000
9.50000000E+000 3.00000000E+001 0.00000000E+000
9.48300000E+000 2.97660000E+001 0.00000000E+000
9.64310000E+000 2.85900000E+001 0.00000000E+000
1.09110000E+001 2.62490000E+001 0.00000000E+000
1.07510000E+001 2.64260000E+001 0.00000000E+000
9.46600000E+000 2.95320000E+001 0.00000000E+000
1.10710000E+001 2.60710000E+001 0.00000000E+000
1.05850000E+001 2.66040000E+001 0.00000000E+000
9.46000000E+000 2.93090000E+001 0.00000000E+000
1.04190000E+001 2.67810000E+001 0.00000000E+000
9.45390000E+000 2.90860000E+001 0.00000000E+000
9.85260000E+000 2.77160000E+001 0.00000000E+000
1.02440000E+001 2.69620000E+001 0.00000000E+000
9.45290000E+000 2.89060000E+001 0.00000000E+000
9.58260000E+000 2.83100000E+001 0.00000000E+000
9.45200000E+000 2.87260000E+001 0.00000000E+000
1.00690000E+001 2.71440000E+001 0.00000000E+000
9.25000000E+000 3.00000000E+001 0.00000000E+000
9.22660000E+000 2.95340000E+001 0.00000000E+000
1.05780000E+001 2.62520000E+001 0.00000000E+000
9.83920000E+000 2.73440000E+001 0.00000000E+000
1.08930000E+001 2.58930000E+001 0.00000000E+000
1.02590000E+001 2.66100000E+001 0.00000000E+000
9.23190000E+000 2.90830000E+001 0.00000000E+000
9.27190000E+000 2.86810000E+001 0.00000000E+000
9.92880000E+000 2.69690000E+001 0.00000000E+000
9.60960000E+000 2.75440000E+001 0.00000000E+000
9.47030000E+000 2.78550000E+001 0.00000000E+000
9.33090000E+000 2.81660000E+001 0.00000000E+000
9.00000000E+000 3.00000000E+001 0.00000000E+000
9.21140000E+000 2.84000000E+001 0.00000000E+000
8.99360000E+000 2.97680000E+001 0.00000000E+000
8.98720000E+000 2.95360000E+001 0.00000000E+000
1.04050000E+001 2.60780000E+001 0.00000000E+000
8.99850000E+000 2.93070000E+001 0.00000000E+000
1.02530000E+001 2.62590000E+001 0.00000000E+000
1.05600000E+001 2.58960000E+001 0.00000000E+000
1.01000000E+001 2.64390000E+001 0.00000000E+000
9.05080000E+000 2.88570000E+001 0.00000000E+000
9.56750000E+000 2.73170000E+001 0.00000000E+000
9.00990000E+000 2.90790000E+001 0.00000000E+000
1.07140000E+001 2.57140000E+001 0.00000000E+000
9.09180000E+000 2.86350000E+001 0.00000000E+000
9.94440000E+000 2.66170000E+001 0.00000000E+000
9.78880000E+000 2.67940000E+001 0.00000000E+000
9.65710000E+000 2.69430000E+001 0.00000000E+000
9.52540000E+000 2.70910000E+001 0.00000000E+000
9.30830000E+000 2.74970000E+001 0.00000000E+000
9.06360000E+000 2.80970000E+001 0.00000000E+000
8.75000000E+000 3.00000000E+001 0.00000000E+000
[...]
POINT_DATA    10383
SCALARS Ux float
LOOKUP_TABLE default
1.00000000E+000
1.01340655E+000
1.00000000E+000
1.04631537E+000
1.00000000E+000
1.05202170E+000
1.02525472E+000
1.05209948E+000
1.09847376E+000
1.00000000E+000
1.08029556E+000
1.14586069E+000
1.06134958E+000
1.11430233E+000
1.16591211E+000
1.00000000E+000
1.16479028E+000
1.24808244E+000
1.00000000E+000
1.22330932E+000
1.29439997E+000
1.12194055E+000
1.34430176E+000
1.00000000E+000
1.29824336E+000
1.45337405E+000
1.00000000E+000
1.38241947E+000
1.49792951E+000
1.20854339E+000
1.57537975E+000
1.00000000E+000
1.49844524E+000
1.70900578E+000
1.00000000E+000
1.77324636E+000
1.33314183E+000
1.85468047E+000
1.00000000E+000
1.62702137E+000
2.01050772E+000
1.00000000E+000
1.86567443E+000
1.61727216E+000
2.17812664E+000
2.16570960E+000
1.00000000E+000
1.29809068E+000
2.11796490E+000
1.58567912E+000
2.35532606E+000
2.10863094E+000
1.82961578E+000
1.00000000E+000
2.32415355E+000
1.57364769E+000
2.07666939E+000
2.54279565E+000
1.00000000E+000
2.55314388E+000
1.27934315E+000
2.54069795E+000
1.55346691E+000
2.29057736E+000
2.06717274E+000
2.53387826E+000
1.79986342E+000
2.73983798E+000
1.00000000E+000
2.51021612E+000
2.74553094E+000
2.04566861E+000
1.55359665E+000
2.49638132E+000
2.25737563E+000
2.94631546E+000
2.96152298E+000
1.00000000E+000
2.71332666E+000
2.04618218E+000
1.27658885E+000
2.95924980E+000
1.54854491E+000
2.47144079E+000
2.94826352E+000
1.79520737E+000
3.16177175E+000
2.04026691E+000
2.92296013E+000
2.46827142E+000
1.00000000E+000
2.65766306E+000
3.17516445E+000
2.24970338E+000
1.55724642E+000
2.89068181E+000
2.45839586E+000
2.84786996E+000
2.06307066E+000
3.13529547E+000
3.38602926E+000
2.60650193E+000
2.80391303E+000
3.40004267E+000
1.00000000E+000
1.28386175E+000
3.39916721E+000
1.56336887E+000
2.75507495E+000
2.50696962E+000
1.82487424E+000
3.38470509E+000
3.03626170E+000
2.08360374E+000
3.35573647E+000
2.32209886E+000
2.85209827E+000
3.61868708E+000
3.30032275E+000
1.00000000E+000
2.55633073E+000
3.63277282E+000
1.57905461E+000
2.75636147E+000
3.23152525E+000
3.09602374E+000
2.95143755E+000
2.12242594E+000
3.59425107E+000
3.85956288E+000
2.63531882E+000
3.87418002E+000
1.00000000E+000
1.30045434E+000
1.59395844E+000
3.87507529E+000
1.88092528E+000
3.10217820E+000
3.48911513E+000
3.86470999E+000
2.16060760E+000
2.44212295E+000
3.84067178E+000
2.71629550E+000
4.10825080E+000
2.99169406E+000
3.80708982E+000
1.00000000E+000
1.61298277E+000
4.12214950E+000
3.25768891E+000
3.51683694E+000
2.20507998E+000
3.75715397E+000
4.07886224E+000
2.78934231E+000
4.36453013E+000
4.37630998E+000
3.99890530E+000
1.31966278E+000
1.63162684E+000
4.37634195E+000
1.00000000E+000
1.94368555E+000
4.35477944E+000
2.24837995E+000
4.32264781E+000
3.42195930E+000
2.55868663E+000
4.28465394E+000
3.96735662E+000
4.23975800E+000
2.86310844E+000
4.62806203E+000
4.63020644E+000
1.65288077E+000
3.22989076E+000
1.00000000E+000
2.28085454E+000
4.55871838E+000
4.42031885E+000
2.89381208E+000
3.58990076E+000
3.89762036E+000
4.18301506E+000
4.89853738E+000
4.39939206E+000
4.90001928E+000
4.89041793E+000
1.67405939E+000
4.85069545E+000
1.99638204E+000
1.34022784E+000
2.31153508E+000
4.70756510E+000
3.50750819E+000
4.80014860E+000
1.00000000E+000
4.60432140E+000
2.62069068E+000
2.92215382E+000
3.17131583E+000
3.41509776E+000
3.89681419E+000
4.45211915E+000
5.17566066E+000
5.15818423E+000
1.69916062E+000
2.36231929E+000
5.06567195E+000
4.86066912E+000
1.00000000E+000
3.00870431E+000
3.56076405E+000
5.45905366E+000
5.45093915E+000
4.48265497E+000
4.73004549E+000
4.21590951E+000
5.43192098E+000
4.93441749E+000
5.39012585E+000
2.07219776E+000
2.41283410E+000
1.72360958E+000
2.75968484E+000
5.23645320E+000
5.33729210E+000
3.97125647E+000
1.36598880E+000
5.12338116E+000
3.09709625E+000
3.40952242E+000
1.00000000E+000
3.71037165E+000
5.74840538E+000
5.72309864E+000
2.47528501E+000
1.75229562E+000
5.62903286E+000
5.04259769E+000
4.51665887E+000
5.41784066E+000
3.21596643E+000
1.00000000E+000
3.92718937E+000
6.04334314E+000
6.03699003E+000
2.53917894E+000
2.16550701E+000
6.01995839E+000
5.97902872E+000
1.78120003E+000
2.94462953E+000
5.92678082E+000
1.39458158E+000
5.82951893E+000
3.33768981E+000
5.71883707E+000
5.54955602E+000
1.00000000E+000
5.36357651E+000
5.10627340E+000
3.75281860E+000
4.82712346E+000
4.50082187E+000
4.15189622E+000
6.34351083E+000
6.32021393E+000
2.59797865E+000
1.80719421E+000
6.23721911E+000
3.45364316E+000
1.00000000E+000
6.03547567E+000
5.70256937E+000
5.17156084E+000
4.41749881E+000
6.64849805E+000
6.64206275E+000
6.62534936E+000
2.65837392E+000
2.25178932E+000
1.83495262E+000
6.59449666E+000
1.42284574E+000
3.12208722E+000
6.55281337E+000
6.46242757E+000
1.00000000E+000
6.35837248E+000
3.57417154E+000
6.21270057E+000
6.04965255E+000
5.80175754E+000
4.14318145E+000
5.52803905E+000
5.12984647E+000
6.95792617E+000
2.69081426E+000
6.93895052E+000
1.85533903E+000
4.69490708E+000
6.87094646E+000
1.00000000E+000
3.59351397E+000
6.69777863E+000
6.42843771E+000
7.27135329E+000
7.26879075E+000
2.72442038E+000
2.30495597E+000
7.25669588E+000
4.61720170E+000
1.87640485E+000
7.22991035E+000
3.17192475E+000
1.44319200E+000
5.97424440E+000
7.19326818E+000
5.15495577E+000
1.00000000E+000
7.12409255E+000
3.61093322E+000
7.04229808E+000
6.93575371E+000
4.07301186E+000
6.81375205E+000
7.58838555E+000
2.75920035E+000
4.52620283E+000
7.57414145E+000
1.89770956E+000
6.63611294E+000
7.51659760E+000
3.63856878E+000
1.00000000E+000
5.62443142E+000
6.04238269E+000
7.39231479E+000
6.43306137E+000
4.89594145E+000
5.45116605E+000
4.52031868E+000
7.20791156E+000
2.79586053E+000
7.90851959E+000
2.36336745E+000
7.90606973E+000
7.89483151E+000
3.23533493E+000
1.92001556E+000
5.26576670E+000
7.87360310E+000
5.84917782E+000
3.66558706E+000
1.46479713E+000
7.84314145E+000
1.00000000E+000
7.79987896E+000
4.09276899E+000
6.53669239E+000
5.48401525E+000
7.74625966E+000
6.92066628E+000
4.51119229E+000
5.25990520E+000
7.68162628E+000
6.07870792E+000
5.89388512E+000
5.70383646E+000
2.84796635E+000
8.23133795E+000
4.88467315E+000
7.60587518E+000
8.21946418E+000
1.94751891E+000
6.36335548E+000
3.72967190E+000
8.17521293E+000
6.63978038E+000
7.51327266E+000
5.25195037E+000
1.00000000E+000
5.78096940E+000
6.20495310E+000
4.58226389E+000
8.09416419E+000
5.55757061E+000
7.40750214E+000
6.67348381E+000
5.85878858E+000
2.90358005E+000
3.35456336E+000
2.44681060E+000
6.09878781E+000
6.97832955E+000
8.55634294E+000
8.55507224E+000
7.97850346E+000
3.79612893E+000
8.54617198E+000
1.97765320E+000
6.33336940E+000
5.35031365E+000
8.53180184E+000
6.52198031E+000
7.36580360E+000
1.49453063E+000
4.23097906E+000
6.70677297E+000
8.50949344E+000
1.00000000E+000
4.65535372E+000
8.48114623E+000
5.99407857E+000
8.44460494E+000
5.05840461E+000
7.31670695E+000
7.81181890E+000
6.52035713E+000
6.92296239E+000
8.40320699E+000
5.45148745E+000
2.97300320E+000
8.88305126E+000
7.23169505E+000
3.89200278E+000
5.79672651E+000
8.87513977E+000
8.35324225E+000
2.01385534E+000
6.13290714E+000
8.84356043E+000
4.77420090E+000
6.42732140E+000
7.14105059E+000
8.29023282E+000
1.00000000E+000
6.93088334E+000
6.71162244E+000
7.68326357E+000
8.78991826E+000
8.21725450E+000
5.59651840E+000
3.04786058E+000
3.52674838E+000
3.99402213E+000
2.55780763E+000
9.21095456E+000
9.21161275E+000
8.13931969E+000
9.20545951E+000
8.71237018E+000
2.05225641E+000
4.45119576E+000
6.32657019E+000
9.19554966E+000
7.45352571E+000
1.53336801E+000
4.89741669E+000
9.17882616E+000
6.95406739E+000
1.00000000E+000
5.32852164E+000
9.16113137E+000
8.05151350E+000
5.74755234E+000
9.13650023E+000
8.59575174E+000
6.14378762E+000
7.91707621E+000
9.10802211E+000
3.13211447E+000
6.52578828E+000
4.11313007E+000
9.53954130E+000
6.87189362E+000
9.53364052E+000
9.07265278E+000
7.77139181E+000
7.49461332E+000
2.09549771E+000
7.20301611E+000
5.04583564E+000
9.51452359E+000
9.02784851E+000
1.00000000E+000
8.44616998E+000
5.92488040E+000
9.48065332E+000
8.97518967E+000
6.74200764E+000
3.22272856E+000
3.73989024E+000
4.24140884E+000
9.86830758E+000
2.69127762E+000
9.86787901E+000
9.86179705E+000
4.72956756E+000
9.42728258E+000
8.91374059E+000
2.14342656E+000
7.48385818E+000
9.85902365E+000
5.20282856E+000
1.57817737E+000
9.85064050E+000
8.19707732E+000
5.66512637E+000
1.00000000E+000
9.84046583E+000
8.84359897E+000
6.11134337E+000
9.82472721E+000
6.54835239E+000
9.35221401E+000
6.96735158E+000
9.80614389E+000
3.31990614E+000
7.38030632E+000
1.01967021E+001
4.37554557E+000
8.74434448E+000
1.01929563E+001
9.78188309E+000
2.19511228E+000
7.77448601E+000
5.36628732E+000
1.01856632E+001
8.21614308E+000
9.75813100E+000
1.00000000E+000
9.26120924E+000
6.30052824E+000
8.63218795E+000
1.01663824E+001
9.72873878E+000
7.17567808E+000
1.05242064E+001
3.42596453E+000
3.98258367E+000
1.05260213E+001
4.51941979E+000
1.01332832E+001
2.84801588E+000
9.70552281E+000
1.05232007E+001
5.04028653E+000
2.25125985E+000
1.05238384E+001
7.99628397E+000
5.54137944E+000
1.63403396E+000
1.05199531E+001
6.03118458E+000
1.00000000E+000
1.05155947E+001
6.50142414E+000
9.67716378E+000
9.15505144E+000
1.05070193E+001
6.95764134E+000
1.00963385E+001
8.82974133E+000
1.04972239E+001
7.39497537E+000
1.08502891E+001
9.67425940E+000
7.82141100E+000
1.04832869E+001
3.53105017E+000
1.08511123E+001
4.66530218E+000
2.30800090E+000
5.72427988E+000
8.22839975E+000
1.08484853E+001
1.04746309E+001
1.00000000E+000
1.00675921E+001
6.70700798E+000
8.64207248E+000
9.66817773E+000
1.08417959E+001
1.04621778E+001
7.61170196E+000
9.03750610E+000
1.11744144E+001
1.04600488E+001
1.11776047E+001
1.08289586E+001
1.11770280E+001
3.64630758E+000
4.24754994E+000
4.82586131E+000
3.01911734E+000
1.11779110E+001
5.38593507E+000
2.37158052E+000
8.44021771E+000
1.11751375E+001
5.92169923E+000
1.69415647E+000
9.75942694E+000
6.43706201E+000
1.04550548E+001
1.11764957E+001
1.00000000E+000
1.00802596E+001
9.45203565E+000
6.92907018E+000
1.11745813E+001
1.08197644E+001
7.39651045E+000
1.11749117E+001
7.84316346E+000
9.22288497E+000
1.04715237E+001
1.14960413E+001
1.11722754E+001
8.26400643E+000
1.14990963E+001
9.85400480E+000
3.76953705E+000
4.99670515E+000
2.43398482E+000
1.14993223E+001
8.66510744E+000
1.11747323E+001
6.12677280E+000
1.08233144E+001
1.04865388E+001
1.00000000E+000
9.04986336E+000
1.15041804E+001
7.15589859E+000
1.11748340E+001
1.02220219E+001
9.41778583E+000
9.97891081E+000
8.07981846E+000
1.05340330E+001
1.11820937E+001
1.18146499E+001
1.15116050E+001
1.18176318E+001
1.18179987E+001
1.18204718E+001
3.90976311E+000
4.56417015E+000
3.22283194E+000
5.18955316E+000
9.76955101E+000
1.08549354E+001
1.18204752E+001
8.89665948E+000
2.50820134E+000
1.11877793E+001
5.78586885E+000
1.76359709E+000
6.35332228E+000
1.18266325E+001
1.00000000E+000
1.05826647E+001
6.89249059E+000
1.18307442E+001
1.15216131E+001
7.40369432E+000
1.01094405E+001
1.12033638E+001
9.62742121E+000
1.18399057E+001
7.88217925E+000
8.33501170E+000
1.21297132E+001
1.18474139E+001
1.21331981E+001
1.06530285E+001
8.75009238E+000
1.12185231E+001
1.04218190E+001
1.15410767E+001
1.21374291E+001
9.14331094E+000
4.05817806E+000
1.18566932E+001
1.09348369E+001
5.38752564E+000
2.58865898E+000
1.02712291E+001
9.50428412E+000
6.59334363E+000
1.00000000E+000
1.18647756E+001
1.21531662E+001
1.12496217E+001
9.84812442E+000
1.07266680E+001
7.66771244E+000
1.18775880E+001
1.01502269E+001
8.61023517E+000
1.24407171E+001
1.21760189E+001
1.15734959E+001
1.24433496E+001
1.12818408E+001
1.24442108E+001
1.24480532E+001
1.07944304E+001
1.04402704E+001
1.18897707E+001
1.24502528E+001
9.41971313E+000
4.23243648E+000
3.47735178E+000
4.94420710E+000
1.10428886E+001
2.68485956E+000
5.61696431E+000
1.06555051E+001
1.24614826E+001
1.85556378E+000
6.25955618E+000
1.00000000E+000
6.86443945E+000
1.13172446E+001
1.22041848E+001
1.19064302E+001
1.24715067E+001
1.01135060E+001
1.08649764E+001
7.42844040E+000
1.24861739E+001
7.95874356E+000
1.16221382E+001
8.44900009E+000
1.19236636E+001
1.06942996E+001
1.25002793E+001
1.27471575E+001
1.13551418E+001
8.90959125E+000
1.27508996E+001
9.32455605E+000
1.22365825E+001
1.27608367E+001
1.25195712E+001
9.71493948E+000
1.19398531E+001
1.11531309E+001
4.41991728E+000
2.79042156E+000
1.00638647E+001
5.86975211E+000
1.00000000E+000
1.25388242E+001
1.13968916E+001
1.03932634E+001
1.27876243E+001
7.16070978E+000
1.19573188E+001
1.06822895E+001
1.16809048E+001
1.25582261E+001
1.09568678E+001
1.22698888E+001
8.29397787E+000
1.12056439E+001
1.28241681E+001
1.30485432E+001
1.30508186E+001
1.19783513E+001
1.30524137E+001
1.14425426E+001
1.25782596E+001
9.26579096E+000
1.30595876E+001
1.30663448E+001
1.00637444E+001
1.30823809E+001
3.81289291E+000
4.64907800E+000
2.92089113E+000
1.25939354E+001
5.43691161E+000
1.20011518E+001
1.97779310E+000
6.16887640E+000
1.00000000E+000
1.28682752E+001
1.22957061E+001
1.30982486E+001
1.07341351E+001
6.85969550E+000
1.17613704E+001
7.50119570E+000
1.26106625E+001
1.12729095E+001
1.31201884E+001
8.10683600E+000
1.20349669E+001
1.16922844E+001
8.66737010E+000
1.31425863E+001
1.33443876E+001
1.26188903E+001
1.33497816E+001
9.17860557E+000
1.29113180E+001
1.23215590E+001
1.20715822E+001
9.65319997E+000
1.31667193E+001
1.33683034E+001
1.00583115E+001
1.26284978E+001
1.04363691E+001
3.08809698E+000
4.92714088E+000
1.07745829E+001
1.31916911E+001
1.00000000E+000
6.51981241E+000
1.34055010E+001
1.21442438E+001
1.10924991E+001
1.13534896E+001
1.26318146E+001
1.29451633E+001
1.15995926E+001
1.17789266E+001
1.19506723E+001
1.32144344E+001
7.90229430E+000
1.20870979E+001
1.23560285E+001
1.26366213E+001
1.22194154E+001
1.34534679E+001
1.36342348E+001
1.36375466E+001
1.32383682E+001
1.36410885E+001
9.10365955E+000
1.36522822E+001
1.26356014E+001
1.29592977E+001
1.36639943E+001
1.32550661E+001
1.01149749E+001
1.36846072E+001
3.31106505E+000
4.34174631E+000
1.24320166E+001
2.18977385E+000
5.28170004E+000
1.26360107E+001
1.35124352E+001
1.08723226E+001
1.00000000E+000
6.15414018E+000
1.22843591E+001
1.37061075E+001
1.32733888E+001
6.94212917E+000
1.19913129E+001
1.26387931E+001
7.68755316E+000
1.29530394E+001
1.37312992E+001
1.15736758E+001
1.32779684E+001
8.36435451E+000
1.26427867E+001
1.37577270E+001
1.39176256E+001
1.35659443E+001
9.00515848E+000
1.39256459E+001
1.32839151E+001
1.26298614E+001
1.29209084E+001
9.59072987E+000
1.37910191E+001
1.39531570E+001
1.32733261E+001
1.26180261E+001
1.01253065E+001
3.62854247E+000
5.71983076E+000
1.28749254E+001
1.25053191E+001
1.38261037E+001
1.00000000E+000
1.32639963E+001
1.36044073E+001
1.06162455E+001
1.09886209E+001
1.40010426E+001
1.13328070E+001
1.23884554E+001
7.42912246E+000
1.32327982E+001
1.38549841E+001
1.17159298E+001
1.22342124E+001
1.32018654E+001
1.31534916E+001
8.87052797E+000
1.41941390E+001
1.40600946E+001
1.20732347E+001
1.41981615E+001
1.31045155E+001
1.38860842E+001
1.36183621E+001
1.42032616E+001
1.42185962E+001
1.42351143E+001
1.39056576E+001
1.30606286E+001
1.01378646E+001
4.11830993E+000
1.42608644E+001
5.29968399E+000
1.35929392E+001
6.28289193E+000
2.60227834E+000
1.41338217E+001
1.39276209E+001
1.00000000E+000
7.20900052E+000
1.17507400E+001
1.42883744E+001
1.32942736E+001
1.28614117E+001
8.01712359E+000
1.35067973E+001
1.22584538E+001
1.39354477E+001
1.43203310E+001
8.77712086E+000
1.12721804E+001
1.39453995E+001
1.44633526E+001
1.43545379E+001
1.42001834E+001
1.26298840E+001
9.45326803E+000
1.44752024E+001
1.39297174E+001
1.43923938E+001
1.45108730E+001
1.34899917E+001
1.01336609E+001
1.39157016E+001
4.76619532E+000
6.97691346E+000
1.24597384E+001
1.36532583E+001
1.38625879E+001
1.23253490E+001
1.34084905E+001
1.38092154E+001
1.42535756E+001
1.44329943E+001
1.21869790E+001
1.00000000E+000
1.07467134E+001
1.45650571E+001
8.62461143E+000
1.33264279E+001
1.44678016E+001
1.32493472E+001
1.20770320E+001
1.13912516E+001
1.42849681E+001
1.47248776E+001
1.27985591E+001
1.45055640E+001
1.47311314E+001
1.46389385E+001
1.00305418E+001
1.31722048E+001
1.47392661E+001
1.47578399E+001
1.45362255E+001
1.19717748E+001
6.01275589E+000
7.00317310E+000
1.47784952E+001
7.77771563E+000
1.26338340E+001
1.42737350E+001
1.31504439E+001
4.20846672E+000
8.62332510E+000
1.48047687E+001
1.45700870E+001
1.47220874E+001
1.00000000E+000
9.34670239E+000
1.42126215E+001
1.48334091E+001
1.40192905E+001
1.31329804E+001
1.12874039E+001
1.45908145E+001
1.00530596E+001
1.48725734E+001
1.38373853E+001
1.31027104E+001
1.46147852E+001
1.49783311E+001
1.48043633E+001
1.49145361E+001
1.06805543E+001
1.36487126E+001
7.18194526E+000
1.30758303E+001
1.49959694E+001
8.70755561E+000
1.46170605E+001
1.26728677E+001
1.49566512E+001
7.32159481E+000
1.50371231E+001
1.46219916E+001
1.13174670E+001
1.24509449E+001
1.00567696E+001
1.35575315E+001
6.52207664E+000
1.46125987E+001
1.48806394E+001
1.50019230E+001
1.31949989E+001
1.33982200E+001
1.50956986E+001
1.46060793E+001
1.18932119E+001
1.50456381E+001
1.45703301E+001
8.89361894E+000
9.27040635E+000
9.65818244E+000
1.45369092E+001
1.44381497E+001
1.13172563E+001
1.49432904E+001
1.07453751E+001
1.52233684E+001
1.43371119E+001
1.42279267E+001
1.50930075E+001
1.52323996E+001
1.51789441E+001
1.41159560E+001
1.33327873E+001
1.52439972E+001
8.81168008E+000
1.02883894E+001
1.37134989E+001
1.24701190E+001
1.40455831E+001
1.52640774E+001
1.38462892E+001
1.51347382E+001
1.39757263E+001
1.52868580E+001
1.08588098E+001
9.52916083E+000
9.75686195E+000
1.49841932E+001
1.53162322E+001
1.51804609E+001
1.52722074E+001
1.29958721E+001
1.04963617E+001
1.14632163E+001
1.53486168E+001
1.24682175E+001
1.37828692E+001
1.10217409E+001
1.25724399E+001
1.39555322E+001
1.52180637E+001
1.53894444E+001
1.50353266E+001
1.20100423E+001
1.05033812E+001
1.05572559E+001
1.36705750E+001
1.06240617E+001
1.54596343E+001
1.52598035E+001
1.53696032E+001
1.54336119E+001
1.15775056E+001
1.09586398E+001
1.54800307E+001
1.45856556E+001
1.35388954E+001
1.48312095E+001
1.52939542E+001
1.10744998E+001
1.13456468E+001
1.25778241E+001
1.54810165E+001
1.44480458E+001
1.55237359E+001
1.42073951E+001
1.20858033E+001
1.53326193E+001
1.40644789E+001
1.51237982E+001
1.54677423E+001
1.55322292E+001
1.18629934E+001
1.35307271E+001
1.15412992E+001
1.55896112E+001
1.30948337E+001
1.26676643E+001
1.53866831E+001
1.40399707E+001
1.55816894E+001
1.45767665E+001
1.23442102E+001
1.20552220E+001
1.56868333E+001
1.55645918E+001
1.56353442E+001
1.22072047E+001
1.56953181E+001
1.56787749E+001
1.45137327E+001
1.54474166E+001
1.27319654E+001
1.57069400E+001
1.34442196E+001
1.43542185E+001
1.36249344E+001
1.25074166E+001
1.50469581E+001
1.57274902E+001
1.54793684E+001
1.28760483E+001
1.49826216E+001
1.56870032E+001
1.51834232E+001
1.44543270E+001
1.57512893E+001
1.49209260E+001
1.53144527E+001
1.57843349E+001
1.28211075E+001
1.56654607E+001
1.57432675E+001
1.57810510E+001
1.55594850E+001
1.37087168E+001
1.30633271E+001
1.33677642E+001
1.41103593E+001
1.58209349E+001
1.33958998E+001
1.45128797E+001
1.55070314E+001
1.46520833E+001
1.57970854E+001
1.48400956E+001
1.58653462E+001
1.33239129E+001
1.67100889E+001
1.59046534E+001
1.58864601E+001
1.38815990E+001
1.58559855E+001
1.56864325E+001
1.59135622E+001
1.59253792E+001
1.54603760E+001
1.36248135E+001
1.45810445E+001
1.58055478E+001
1.52509412E+001
1.39287339E+001
1.38035821E+001
1.59641395E+001
1.59163699E+001
1.59718426E+001
1.44469467E+001
1.40366657E+001
1.54470683E+001
1.50231185E+001
1.52360879E+001
1.43583281E+001
1.58430693E+001
1.60023641E+001
1.57343512E+001
1.60189723E+001
1.46958802E+001
1.67709697E+001
1.59824847E+001
1.52346364E+001
1.50168496E+001
1.60444037E+001
1.77930142E+001
1.42826390E+001
1.44634340E+001
1.60705220E+001
1.60597704E+001
1.48547995E+001
1.54470582E+001
1.61128201E+001
1.61264433E+001
1.45555765E+001
1.56057846E+001
1.61270778E+001
1.61216317E+001
1.53433314E+001
1.61363361E+001
1.58642750E+001
1.60571465E+001
1.61340809E+001
1.47372019E+001
1.69345896E+001
1.61563027E+001
1.61436014E+001
1.48929933E+001
1.59011799E+001
1.61852798E+001
1.49703879E+001
1.61822637E+001
1.60111932E+001
1.53150316E+001
1.59442129E+001
1.87839370E+001
1.56494175E+001
1.62178384E+001
1.62493671E+001
1.62423116E+001