# vtk DataFile Version 1.0
ECM-CELL DIFFUSION-MECHANICS
ASCII

DATASET UNSTRUCTURED_GRID
POINTS     3395 float
1.50000000E+001 3.00000000E+001 0.00000000E+000
1.45000000E+001 3.00000000E+001 0.00000000E+000
1.46430000E+001 2.96430000E+001 0.00000000E+000
1.41430000E+001 2.96430000E+001 0.00000000E+000
1.40000000E+001 3.00000000E+001 0.00000000E+000
1.42860000E+001 2.92860000E+001 0.00000000E+000
1.36690000E+001 2.96610000E+001 0.00000000E+000
1.38120000E+001 2.93030000E+001 0.00000000E+000
1.35000000E+001 3.00000000E+001 0.00000000E+000
1.39290000E+001 2.89290000E+001 0.00000000E+000
1.33390000E+001 2.93210000E+001 0.00000000E+000
1.31690000E+001 2.96610000E+001 0.00000000E+000
1.34550000E+001 2.89460000E+001 0.00000000E+000
1.30000000E+001 3.00000000E+001 0.00000000E+000
1.35710000E+001 2.85710000E+001 0.00000000E+000
1.29190000E+001 2.92280000E+001 0.00000000E+000
1.30360000E+001 2.88530000E+001 0.00000000E+000
1.27500000E+001 2.95670000E+001 0.00000000E+000
1.25000000E+001 3.00000000E+001 0.00000000E+000
1.32140000E+001 2.82140000E+001 0.00000000E+000
1.25000000E+001 2.91340000E+001 0.00000000E+000
1.26790000E+001 2.84960000E+001 0.00000000E+000
1.22500000E+001 2.95670000E+001 0.00000000E+000
1.20000000E+001 3.00000000E+001 0.00000000E+000
1.28570000E+001 2.78570000E+001 0.00000000E+000
1.22500000E+001 2.87010000E+001 0.00000000E+000
1.20000000E+001 2.91340000E+001 0.00000000E+000
1.24290000E+001 2.80630000E+001 0.00000000E+000
1.17500000E+001 2.95670000E+001 0.00000000E+000
1.20000000E+001 2.82680000E+001 0.00000000E+000
1.15000000E+001 3.00000000E+001 0.00000000E+000
1.17500000E+001 2.87010000E+001 0.00000000E+000
1.25000000E+001 2.75000000E+001 0.00000000E+000
1.15000000E+001 2.91340000E+001 0.00000000E+000
1.20710000E+001 2.77050000E+001 0.00000000E+000
1.12500000E+001 2.95670000E+001 0.00000000E+000
1.17270000E+001 2.78840000E+001 0.00000000E+000
1.10000000E+001 3.00000000E+001 0.00000000E+000
1.14020000E+001 2.82040000E+001 0.00000000E+000
1.21430000E+001 2.71430000E+001 0.00000000E+000
1.10440000E+001 2.90670000E+001 0.00000000E+000
1.11520000E+001 2.86370000E+001 0.00000000E+000
1.17990000E+001 2.73210000E+001 0.00000000E+000
1.07940000E+001 2.95000000E+001 0.00000000E+000
1.14540000E+001 2.75000000E+001 0.00000000E+000
1.11290000E+001 2.78200000E+001 0.00000000E+000
1.05000000E+001 3.00000000E+001 0.00000000E+000
1.05880000E+001 2.90000000E+001 0.00000000E+000
1.06960000E+001 2.85700000E+001 0.00000000E+000
1.17860000E+001 2.67860000E+001 0.00000000E+000
1.08030000E+001 2.81410000E+001 0.00000000E+000
1.14420000E+001 2.69640000E+001 0.00000000E+000
1.02940000E+001 2.95000000E+001 0.00000000E+000
1.10210000E+001 2.72500000E+001 0.00000000E+000
1.06960000E+001 2.75700000E+001 0.00000000E+000
1.01790000E+001 2.87920000E+001 0.00000000E+000
1.02860000E+001 2.83620000E+001 0.00000000E+000
1.00000000E+001 3.00000000E+001 0.00000000E+000
1.14290000E+001 2.64290000E+001 0.00000000E+000
9.88430000E+000 2.92920000E+001 0.00000000E+000
1.10090000E+001 2.67140000E+001 0.00000000E+000
1.02630000E+001 2.78200000E+001 0.00000000E+000
1.05880000E+001 2.70000000E+001 0.00000000E+000
9.76870000E+000 2.85830000E+001 0.00000000E+000
9.50000000E+000 3.00000000E+001 0.00000000E+000
1.10710000E+001 2.60710000E+001 0.00000000E+000
1.01550000E+001 2.72500000E+001 0.00000000E+000
9.42820000E+000 2.95000000E+001 0.00000000E+000
9.74560000E+000 2.80420000E+001 0.00000000E+000
1.06510000E+001 2.63570000E+001 0.00000000E+000
9.31250000E+000 2.87920000E+001 0.00000000E+000
1.01550000E+001 2.67500000E+001 0.00000000E+000
9.72240000E+000 2.75000000E+001 0.00000000E+000
9.31250000E+000 2.82920000E+001 0.00000000E+000
9.00000000E+000 3.00000000E+001 0.00000000E+000
1.07140000E+001 2.57140000E+001 0.00000000E+000
9.72240000E+000 2.70000000E+001 0.00000000E+000
8.92820000E+000 2.95000000E+001 0.00000000E+000
9.28940000E+000 2.77500000E+001 0.00000000E+000
1.02180000E+001 2.61070000E+001 0.00000000E+000
8.85640000E+000 2.90000000E+001 0.00000000E+000
8.85640000E+000 2.85000000E+001 0.00000000E+000
9.72240000E+000 2.65000000E+001 0.00000000E+000
9.28940000E+000 2.72500000E+001 0.00000000E+000
8.85640000E+000 2.80000000E+001 0.00000000E+000
8.50000000E+000 3.00000000E+001 0.00000000E+000
1.03570000E+001 2.53570000E+001 0.00000000E+000
9.28940000E+000 2.67500000E+001 0.00000000E+000
8.42820000E+000 2.95000000E+001 0.00000000E+000
8.85640000E+000 2.75000000E+001 0.00000000E+000
9.86120000E+000 2.57500000E+001 0.00000000E+000
8.42340000E+000 2.87500000E+001 0.00000000E+000
8.42340000E+000 2.82500000E+001 0.00000000E+000
8.85640000E+000 2.70000000E+001 0.00000000E+000
9.21420000E+000 2.63230000E+001 0.00000000E+000
8.42340000E+000 2.77500000E+001 0.00000000E+000
9.34630000E+000 2.58830000E+001 0.00000000E+000
8.00000000E+000 3.00000000E+001 0.00000000E+000
7.99520000E+000 2.92500000E+001 0.00000000E+000
1.00000000E+001 2.50000000E+001 0.00000000E+000
8.78120000E+000 2.65730000E+001 0.00000000E+000
8.42340000E+000 2.72500000E+001 0.00000000E+000
7.99040000E+000 2.85000000E+001 0.00000000E+000
7.99040000E+000 2.80000000E+001 0.00000000E+000
8.42340000E+000 2.67500000E+001 0.00000000E+000
9.48510000E+000 2.51330000E+001 0.00000000E+000
8.70610000E+000 2.61470000E+001 0.00000000E+000
7.99040000E+000 2.75000000E+001 0.00000000E+000
7.56220000E+000 2.95000000E+001 0.00000000E+000
7.50000000E+000 3.00000000E+001 0.00000000E+000
8.83810000E+000 2.57070000E+001 0.00000000E+000
7.55740000E+000 2.87500000E+001 0.00000000E+000
9.64290000E+000 2.46430000E+001 0.00000000E+000
8.34820000E+000 2.63230000E+001 0.00000000E+000
7.99040000E+000 2.70000000E+001 0.00000000E+000
7.55740000E+000 2.82500000E+001 0.00000000E+000
8.97020000E+000 2.52660000E+001 0.00000000E+000
7.55740000E+000 2.77500000E+001 0.00000000E+000
7.99040000E+000 2.65000000E+001 0.00000000E+000
9.12790000E+000 2.47760000E+001 0.00000000E+000
8.34850000E+000 2.58070000E+001 0.00000000E+000
7.55740000E+000 2.72500000E+001 0.00000000E+000
7.12440000E+000 2.90000000E+001 0.00000000E+000
7.06220000E+000 2.95000000E+001 0.00000000E+000
8.48060000E+000 2.53670000E+001 0.00000000E+000
7.00000000E+000 3.00000000E+001 0.00000000E+000
7.12440000E+000 2.85000000E+001 0.00000000E+000
7.99070000E+000 2.59840000E+001 0.00000000E+000
9.28570000E+000 2.42860000E+001 0.00000000E+000
7.55740000E+000 2.67500000E+001 0.00000000E+000
7.12440000E+000 2.80000000E+001 0.00000000E+000
8.63770000E+000 2.48930000E+001 0.00000000E+000
7.12440000E+000 2.75000000E+001 0.00000000E+000
7.57450000E+000 2.62240000E+001 0.00000000E+000
7.99100000E+000 2.54680000E+001 0.00000000E+000
8.79550000E+000 2.44030000E+001 0.00000000E+000
6.66980000E+000 2.87920000E+001 0.00000000E+000
7.12440000E+000 2.70000000E+001 0.00000000E+000
6.56220000E+000 2.95000000E+001 0.00000000E+000
8.14810000E+000 2.49940000E+001 0.00000000E+000
6.50000000E+000 3.00000000E+001 0.00000000E+000
6.66980000E+000 2.82920000E+001 0.00000000E+000
7.57480000E+000 2.57080000E+001 0.00000000E+000
8.92860000E+000 2.39290000E+001 0.00000000E+000
6.69130000E+000 2.77500000E+001 0.00000000E+000
7.14150000E+000 2.64740000E+001 0.00000000E+000
8.30520000E+000 2.45200000E+001 0.00000000E+000
6.69130000E+000 2.72500000E+001 0.00000000E+000
7.60860000E+000 2.52130000E+001 0.00000000E+000
7.15860000E+000 2.59480000E+001 0.00000000E+000
8.43830000E+000 2.40460000E+001 0.00000000E+000
6.21530000E+000 2.85830000E+001 0.00000000E+000
6.10760000E+000 2.92920000E+001 0.00000000E+000
6.69130000E+000 2.67500000E+001 0.00000000E+000
7.76570000E+000 2.47390000E+001 0.00000000E+000
6.23680000E+000 2.80420000E+001 0.00000000E+000
6.00000000E+000 3.00000000E+001 0.00000000E+000
7.19240000E+000 2.54530000E+001 0.00000000E+000
8.57140000E+000 2.35710000E+001 0.00000000E+000
6.25830000E+000 2.75000000E+001 0.00000000E+000
6.70850000E+000 2.62240000E+001 0.00000000E+000
7.84570000E+000 2.41650000E+001 0.00000000E+000
6.25830000E+000 2.70000000E+001 0.00000000E+000
5.82030000E+000 2.88290000E+001 0.00000000E+000
7.22630000E+000 2.49580000E+001 0.00000000E+000
5.71260000E+000 2.95370000E+001 0.00000000E+000
6.70850000E+000 2.57240000E+001 0.00000000E+000
5.80380000E+000 2.82920000E+001 0.00000000E+000
6.25830000E+000 2.65000000E+001 0.00000000E+000
7.97890000E+000 2.36910000E+001 0.00000000E+000
5.82530000E+000 2.77500000E+001 0.00000000E+000
5.50000000E+000 3.00000000E+001 0.00000000E+000
7.30630000E+000 2.43840000E+001 0.00000000E+000
6.74230000E+000 2.52290000E+001 0.00000000E+000
5.82530000E+000 2.72500000E+001 0.00000000E+000
8.21430000E+000 2.32140000E+001 0.00000000E+000
6.25830000E+000 2.60000000E+001 0.00000000E+000
5.42530000E+000 2.90740000E+001 0.00000000E+000
5.40880000E+000 2.85370000E+001 0.00000000E+000
5.82530000E+000 2.67500000E+001 0.00000000E+000
6.74230000E+000 2.47290000E+001 0.00000000E+000
5.21260000E+000 2.95370000E+001 0.00000000E+000
7.38630000E+000 2.38100000E+001 0.00000000E+000
5.39230000E+000 2.80000000E+001 0.00000000E+000
6.25830000E+000 2.55000000E+001 0.00000000E+000
5.82530000E+000 2.62500000E+001 0.00000000E+000
5.39230000E+000 2.75000000E+001 0.00000000E+000
7.62170000E+000 2.33330000E+001 0.00000000E+000
5.00000000E+000 3.00000000E+001 0.00000000E+000
6.82230000E+000 2.41550000E+001 0.00000000E+000
5.39230000E+000 2.70000000E+001 0.00000000E+000
6.25830000E+000 2.50000000E+001 0.00000000E+000
4.97200000E+000 2.89300000E+001 0.00000000E+000
7.85710000E+000 2.28570000E+001 0.00000000E+000
5.82530000E+000 2.57500000E+001 0.00000000E+000
4.95550000E+000 2.83930000E+001 0.00000000E+000
7.25530000E+000 2.34050000E+001 0.00000000E+000
5.39230000E+000 2.65000000E+001 0.00000000E+000
4.75940000E+000 2.93930000E+001 0.00000000E+000
4.95930000E+000 2.77500000E+001 0.00000000E+000
7.49070000E+000 2.29290000E+001 0.00000000E+000
6.25830000E+000 2.45000000E+001 0.00000000E+000
5.82530000E+000 2.52500000E+001 0.00000000E+000
6.82230000E+000 2.36550000E+001 0.00000000E+000
5.39230000E+000 2.60000000E+001 0.00000000E+000
4.95930000E+000 2.72500000E+001 0.00000000E+000
[...]
POINT_DATA     3395
SCALARS Ux float
LOOKUP_TABLE default
1.00000000E+000
1.04075603E+000
1.00000000E+000
1.11026285E+000
1.16284475E+000
1.00000000E+000
1.26118296E+000
1.14410513E+000
1.34020436E+000
1.00000000E+000
1.34102955E+000
1.47820524E+000
1.20030538E+000
1.57088951E+000
1.00000000E+000
1.52587140E+000
1.36526476E+000
1.68495824E+000
1.84774988E+000
1.00000000E+000
1.74116155E+000
1.44320637E+000
1.98783257E+000
2.16990637E+000
1.00000000E+000
1.78660942E+000
2.07219629E+000
1.38480259E+000
2.33228416E+000
1.77710003E+000
2.53541227E+000
2.14043912E+000
1.00000000E+000
2.43845463E+000
1.44099431E+000
2.71741594E+000
1.79685598E+000
2.93640527E+000
2.20685644E+000
1.00000000E+000
2.79436303E+000
2.59045752E+000
1.39218949E+000
3.09431908E+000
1.78556783E+000
2.25229633E+000
3.37509528E+000
3.17904878E+000
2.96611500E+000
1.00000000E+000
2.68842195E+000
1.43627322E+000
3.54789758E+000
2.00105190E+000
2.50827512E+000
3.50888182E+000
3.26642943E+000
3.83910525E+000
1.00000000E+000
3.92065828E+000
1.62371512E+000
3.04979742E+000
2.22987530E+000
3.84999661E+000
4.34886117E+000
1.00000000E+000
2.83563054E+000
4.40590710E+000
3.68740476E+000
1.68111538E+000
4.39351534E+000
2.48902241E+000
3.43051756E+000
4.23922094E+000
4.88639520E+000
1.00000000E+000
3.13641227E+000
4.94911672E+000
4.03707890E+000
1.90217601E+000
4.93837153E+000
4.82121818E+000
2.75913155E+000
3.76699826E+000
4.63135985E+000
5.44249485E+000
1.00000000E+000
3.44620020E+000
5.50934509E+000
4.41209562E+000
1.97229402E+000
5.37978090E+000
5.23543603E+000
4.11709367E+000
3.21207620E+000
5.03807403E+000
2.69089655E+000
6.01488258E+000
5.99254476E+000
1.00000000E+000
3.93358776E+000
4.79493756E+000
5.82410799E+000
5.67465644E+000
4.49462334E+000
1.76287706E+000
3.69989495E+000
5.45467612E+000
6.53695979E+000
6.62768481E+000
3.16410126E+000
6.42473400E+000
1.00000000E+000
4.29705149E+000
5.20764598E+000
6.29251781E+000
2.55145839E+000
6.12020023E+000
4.88723580E+000
1.82106302E+000
3.88683618E+000
5.89675290E+000
7.00901805E+000
7.15995172E+000
3.30595964E+000
7.25071058E+000
6.91719840E+000
4.52392272E+000
1.00000000E+000
5.63258279E+000
6.76448147E+000
2.60248766E+000
6.59048177E+000
5.26925400E+000
4.07726109E+000
1.80679564E+000
7.55807434E+000
6.35187171E+000
7.79250337E+000
3.40717397E+000
7.88270478E+000
7.45285485E+000
4.88648637E+000
1.00000000E+000
7.25898443E+000
6.05039436E+000
2.64190719E+000
7.07199353E+000
4.40351123E+000
5.66986432E+000
1.87005692E+000
8.10889437E+000
8.36581461E+000
6.83578169E+000
3.69913486E+000
7.96771264E+000
8.51791663E+000
5.25371590E+000
1.00000000E+000
7.76102724E+000
6.52538680E+000
2.91258768E+000
7.57875478E+000
8.68153766E+000
4.75320137E+000
8.89413352E+000
6.19307415E+000
8.60690236E+000
7.33814751E+000
2.07680063E+000
8.44797963E+000
9.18090792E+000
4.05769625E+000
5.77468413E+000
8.28789134E+000
1.00000000E+000
7.07735852E+000
9.23026941E+000
9.18882040E+000
8.10334489E+000
5.33251892E+000
9.55034760E+000
3.21616933E+000
9.10016882E+000
6.75141502E+000
7.87281105E+000
8.98606065E+000
2.16544503E+000
9.83028531E+000
4.62873980E+000
8.82565945E+000
6.40098346E+000
9.81888189E+000
1.00000000E+000
7.61793076E+000
9.77872387E+000
2.91147418E+000
8.65340396E+000
1.01386261E+001
9.65125886E+000
1.75199307E+000
5.97370366E+000
7.30756728E+000
4.02907775E+000
8.43194886E+000
9.53774015E+000
1.04895014E+001
2.54389324E+000
1.03985283E+001
9.39005152E+000
6.97109015E+000
5.51322904E+000
1.00000000E+000
8.19615770E+000
1.03292489E+001
3.76097138E+000
9.22880252E+000
1.07932800E+001
1.02037618E+001
1.83097542E+000
6.56390502E+000
7.90593336E+000
4.95078657E+000
1.01040353E+001
9.02713570E+000
1.09829932E+001
1.11300599E+001
3.00873468E+000
1.09399722E+001
9.96829921E+000
7.59677210E+000
6.12321074E+000
8.81496337E+000
1.00000000E+000
1.08598364E+001
1.13496362E+001
4.33324688E+000
9.82809219E+000
1.07770129E+001
2.25945111E+000
7.22273864E+000
8.55345463E+000
1.06890664E+001
1.15429485E+001
5.58293430E+000
9.65168600E+000
1.15180090E+001
1.17753829E+001
1.14690807E+001
3.57109688E+000
1.05744402E+001
8.28472439E+000
6.82017267E+000
9.47060405E+000
1.14224040E+001
1.00000000E+000
1.19860596E+001
4.98962265E+000
1.04596414E+001
1.13517702E+001
2.43900570E+000
1.20703719E+001
7.95175549E+000
9.25298091E+000
1.12845488E+001
1.20479848E+001
6.33097802E+000
1.03143310E+001
1.20315190E+001
1.23875355E+001
4.23916874E+000
1.11949948E+001
9.03008738E+000
1.19956772E+001
7.61531665E+000
1.01775495E+001
1.24992791E+001
1.00000000E+000
1.18705830E+001
5.79118970E+000
1.11093991E+001
1.25803420E+001
1.18238837E+001
3.06504606E+000
8.76973508E+000
1.00059356E+001
1.25902151E+001
7.18722498E+000
1.10058199E+001
1.25845276E+001
1.24935650E+001
1.30065025E+001
5.10042986E+000
1.30482785E+001
1.23856555E+001
9.85593216E+000
8.50431678E+000
1.09138188E+001
1.20809207E+001
1.00000000E+000
1.31441725E+001
6.76384359E+000
1.31374101E+001
1.20504633E+001
3.50389802E+000
9.66634132E+000
1.08111073E+001
1.31559518E+001
8.20470026E+000
1.26550378E+001
1.17364005E+001
1.31483222E+001
1.30756961E+001
5.86002044E+000
1.35862849E+001
1.36284206E+001
1.07252012E+001
9.52483901E+000
1.17061442E+001
1.36623034E+001
1.00000000E+000
1.36741305E+001
7.65251669E+000
1.36750820E+001
1.29448196E+001
4.19833884E+000
1.27367834E+001
1.33547759E+001
1.36889359E+001
1.06485170E+001
1.16648941E+001
9.34446419E+000
1.24884527E+001
1.36965799E+001
7.03492987E+000
1.41503467E+001
1.41907845E+001
1.16784254E+001
1.06063162E+001
1.25081193E+001
1.42180347E+001
1.00000000E+000
1.34484883E+001
9.05491027E+000
1.42353576E+001
1.36873324E+001
1.32847002E+001
1.40144920E+001
5.35673791E+000
1.44686349E+001
1.16950129E+001
1.25523313E+001
1.43728738E+001
1.06193541E+001
1.42961572E+001
1.44082170E+001
8.95939075E+000
1.46676840E+001
1.26401854E+001
1.39760641E+001
1.36420888E+001
1.18116940E+001
1.47402445E+001
1.41830471E+001
1.00000000E+000
1.07249007E+001
1.43680414E+001
1.49286545E+001
8.68108827E+000
1.48805632E+001
1.46364557E+001
1.37633300E+001
1.49685172E+001
1.27838599E+001
1.34745699E+001
1.19765829E+001
1.48711110E+001
1.49526369E+001
1.43423429E+001
1.50252674E+001
1.10121918E+001
1.51734197E+001
9.77023865E+000
1.46220404E+001
1.51783409E+001
1.47819220E+001
1.36640474E+001
1.29998067E+001
1.52459100E+001
9.87555430E+000
1.50247470E+001
1.23343126E+001
1.54094311E+001
1.52343217E+001
1.53876019E+001
1.47612316E+001
1.45901203E+001
1.54430760E+001
1.17471171E+001
1.43967952E+001
1.50090734E+001
1.42781062E+001
1.33485945E+001
1.41050670E+001
1.54434861E+001
1.54910376E+001
1.52221670E+001
1.24107024E+001
1.28734533E+001
1.56257424E+001
1.56541951E+001
1.54327228E+001
1.56862363E+001
1.57019778E+001
1.56135344E+001
1.48202980E+001
1.44539719E+001
1.38289369E+001
1.32897556E+001
1.53308442E+001
1.52231196E+001
1.67284613E+001
1.58532452E+001
1.55333002E+001
1.57955730E+001
1.58949137E+001
1.38623231E+001
1.57006883E+001
1.45803025E+001
1.47032274E+001
1.59527659E+001
1.59775070E+001
1.58771802E+001
1.53236318E+001
1.45404995E+001
1.43536090E+001
1.60601959E+001
1.60230125E+001
1.60720885E+001
1.56591795E+001
1.61137729E+001
1.61489803E+001
1.61756544E+001
1.87092560E+001
1.59448145E+001
1.50207180E+001
1.55804316E+001
1.60867062E+001
1.53132522E+001
1.69551999E+001
1.62538903E+001
1.62113946E+001
1.63032623E+001
1.62592194E+001
1.54660356E+001
1.63420395E+001
1.59394371E+001
1.63054421E+001
1.59644783E+001
1.64524945E+001
1.64377446E+001
1.62001200E+001
1.64026486E+001
1.61969507E+001
1.64113355E+001
1.60956730E+001
1.65685806E+001
1.64352197E+001
2.05013396E+001
1.64700669E+001
1.65521087E+001
1.66031483E+001
1.88454726E+001
1.66941520E+001
1.65618816E+001
1.65348244E+001
1.66651796E+001
1.65743916E+001
1.67608325E+001
1.78209379E+001
1.66275124E+001
1.68492143E+001
1.66747055E+001
1.67684868E+001
1.66240564E+001
1.69141581E+001
1.70068590E+001
1.77360167E+001
1.66764741E+001
1.70651388E+001
1.69947368E+001
1.71653671E+001
1.68544826E+001
1.71919981E+001
1.67816610E+001
2.20432645E+001
1.78201413E+001
2.06084898E+001
1.70539069E+001
1.74375030E+001
1.73043945E+001
1.73220788E+001
1.67892905E+001
1.94602551E+001
1.68058843E+001
1.73397961E+001
1.69487802E+001
1.71259011E+001
1.73726362E+001
1.68984285E+001
1.76068573E+001
1.80866364E+001
1.92054785E+001
1.73967687E+001
1.78650856E+001
1.70285975E+001
1.71794168E+001
1.74324586E+001
1.69471883E+001
1.83479191E+001
1.91529284E+001
2.34904174E+001
1.70029642E+001
2.21200377E+001
1.80075478E+001
1.74561387E+001
1.72449255E+001
1.82460608E+001
2.10436884E+001
1.80452880E+001
1.71184712E+001
1.80033410E+001
1.92082778E+001
1.74902739E+001
1.79546743E+001
1.86811436E+001
1.79396393E+001
2.06979481E+001
1.70797614E+001
1.72950438E+001
1.71191929E+001
1.79107405E+001
1.75117717E+001
1.85517270E+001
1.93598367E+001
1.71965138E+001
1.79060704E+001
2.04926958E+001
1.89658704E+001
1.75438907E+001
1.73574206E+001
1.78857123E+001
2.47770712E+001
2.35501730E+001
2.24477788E+001
1.72262520E+001
2.04317223E+001
1.95575778E+001
1.78844343E+001
1.72863555E+001
1.88044432E+001
1.86905024E+001
1.75642112E+001
1.85911560E+001
2.20603186E+001
1.92735029E+001
1.74072569E+001
1.85153007E+001
2.04323254E+001
1.78679080E+001
1.84424451E+001
1.97677129E+001
2.17895379E+001
1.73470404E+001
1.83873287E+001
1.75958980E+001
1.73666980E+001
1.78678768E+001
2.05315701E+001
1.83282580E+001
1.94335800E+001
1.74702698E+001
2.16123087E+001
2.48258746E+001
2.60075263E+001
2.37987737E+001
1.99894902E+001
1.82838925E+001
1.78542114E+001
1.76169044E+001
2.33822436E+001
2.15320882E+001
1.94210881E+001
1.74608759E+001
2.06324810E+001
1.92559523E+001
1.82323743E+001
1.91311605E+001
1.75232539E+001
1.96796563E+001
2.30571730E+001
1.78559392E+001
1.90022530E+001
2.01874285E+001
1.76507616E+001
1.81943451E+001
1.89041254E+001
2.15163811E+001
2.07844870E+001
2.28185532E+001
1.87969396E+001
1.75480086E+001
2.60440888E+001
1.78457584E+001
2.50183530E+001
2.71222158E+001
1.81480436E+001
1.87142962E+001
1.76077367E+001
2.15468024E+001
1.76760804E+001
2.26470029E+001
2.03783353E+001
2.46003787E+001
1.86206265E+001
2.09078154E+001
1.81156951E+001
1.99298242E+001
2.42464389E+001
1.97462630E+001
1.78755859E+001
2.25578439E+001
1.95732635E+001
2.16102327E+001
2.02133938E+001
1.85477501E+001
1.94228657E+001
1.76642896E+001
2.39566909E+001
2.05293659E+001
1.80752840E+001
1.77304431E+001
1.92755477E+001
2.10511370E+001
1.84636964E+001
2.24979798E+001
2.61975732E+001
2.71559325E+001
1.78666714E+001
1.91468405E+001
2.37359161E+001
2.16787891E+001
2.82003642E+001
2.57702781E+001
1.77242691E+001
1.90162916E+001
1.80727547E+001
1.84062140E+001
2.24966679E+001
2.35731463E+001
2.54019259E+001
1.78562290E+001
2.11527869E+001
1.77693583E+001
1.89020689E+001
2.03952561E+001
2.17596033E+001
2.01673850E+001
2.50830038E+001
2.07646199E+001
1.83296213E+001
1.99740036E+001
2.34589842E+001
1.87838369E+001
2.24929199E+001
1.97776830E+001
2.11094395E+001
1.80515061E+001
2.48169752E+001
1.78012033E+001
2.72754088E+001
2.82239472E+001
1.96095357E+001
1.78687479E+001
1.82737780E+001
2.18198107E+001
2.91882547E+001
2.68608628E+001
2.33854781E+001
1.86848182E+001
1.94345610E+001
2.46079842E+001
1.80082259E+001
2.25225181E+001
2.64799552E+001
1.92837009E+001
1.78332149E+001
2.17204027E+001
2.61433663E+001
2.33324841E+001
1.82250694E+001
2.44339157E+001
1.85742706E+001
2.07644268E+001
1.79679297E+001
1.91249730E+001
2.05209397E+001
2.11679702E+001
2.25299372E+001
2.58493849E+001
2.02848311E+001
2.16101434E+001
1.84885267E+001
2.83229300E+001
2.43101606E+001
2.00705212E+001
1.89882696E+001
2.92123718E+001
2.33026497E+001
2.79063689E+001
2.56009379E+001
1.98582623E+001
3.01486934E+001
1.79364853E+001
2.75284844E+001
1.83996293E+001
2.25518602E+001
1.96643368E+001
2.41987456E+001
1.88396691E+001
2.53897416E+001
2.71782714E+001
2.32691258E+001
2.13330661E+001
1.94680996E+001
1.82634043E+001
1.79184952E+001
1.79258111E+001
2.17885705E+001
2.23811975E+001
2.68662605E+001
2.10952158E+001
2.52169094E+001
1.80001225E+001
2.41230728E+001
3.01565794E+001
2.08127241E+001
1.92930421E+001
1.80764267E+001
2.92876195E+001
2.65906269E+001
1.81684337E+001
2.32454801E+001
2.88895248E+001
2.05949583E+001
1.91156191E+001
2.50664756E+001
3.10386310E+001
2.85068240E+001
1.86973458E+001
2.03340361E+001
2.40404514E+001
2.00720292E+001
2.63456112E+001
2.23787428E+001
1.84021293E+001
2.81557968E+001
2.19074573E+001
1.98353517E+001
2.32008402E+001
2.49432017E+001
1.85683207E+001
2.61378049E+001
2.16230872E+001
2.78283465E+001
3.02092223E+001
2.39782465E+001
2.13391066E+001
3.10461122E+001
2.75355100E+001
1.79336236E+001
1.79414027E+001
1.79671356E+001
1.89136893E+001
2.59471160E+001
2.48245073E+001
1.80335872E+001
2.98319595E+001
2.24790893E+001
2.10765603E+001
2.31563116E+001
1.81152418E+001
2.72666094E+001
2.94607669E+001
2.38952030E+001
1.91613996E+001
3.19009148E+001
1.82144703E+001
1.96605859E+001
2.08024994E+001
2.57873614E+001
2.91038882E+001
2.04982708E+001
1.83372153E+001
2.02048770E+001
2.47218206E+001
2.70301836E+001
3.10693754E+001
2.87736824E+001
1.94288537E+001
1.84993200E+001
2.30785738E+001
2.24219425E+001
2.38195235E+001
2.56298382E+001
2.84653398E+001
2.68110936E+001
3.07025103E+001
2.20861113E+001
1.86719800E+001
3.19054062E+001
2.46075864E+001
2.15428375E+001
2.81809047E+001
1.88865421E+001
2.66183952E+001
3.03519240E+001
2.54933494E+001
1.99711258E+001
2.29972848E+001
2.12269893E+001
3.00029006E+001
2.37137533E+001
3.27017945E+001
2.79215467E+001
1.91289807E+001
2.45000654E+001
2.96644459E+001
2.19929317E+001
2.64318669E+001
2.03323976E+001
2.76786194E+001
2.53459214E+001
1.93915388E+001
2.93524925E+001
3.19431466E+001
3.15624570E+001
2.36057062E+001
2.28748717E+001
2.90532405E+001
2.62638381E+001
2.43681691E+001
2.10670881E+001
2.74591148E+001
2.07149017E+001
1.96784185E+001
3.27176267E+001
3.12237562E+001
2.52090072E+001
2.87804330E+001
2.16442745E+001
3.08721648E+001
2.72458579E+001
3.34876646E+001
2.00141346E+001
2.60894334E+001
3.05394812E+001
2.34613892E+001
2.85179407E+001
2.42358204E+001
2.27416513E+001
3.02189644E+001
2.50507992E+001
2.20898402E+001
2.70506041E+001
2.03776577E+001
2.82789359E+001
2.99161360E+001
2.59255908E+001
2.14384615E+001
3.27478476E+001
3.23932251E+001
2.96288531E+001
2.40694483E+001
2.33070210E+001
3.20365705E+001
2.68508769E+001
2.80438739E+001
3.34944941E+001
2.48936378E+001
2.07627875E+001
2.25598973E+001
3.16986362E+001
2.57436333E+001
2.93552286E+001
3.13620510E+001
2.19122918E+001
3.42145119E+001
2.78272548E+001
3.10461552E+001
2.66617033E+001
2.11792719E+001
2.90975657E+001
2.38971444E+001
2.47072768E+001
2.31111973E+001
3.07344783E+001
2.55652075E+001
2.23690081E+001
2.76057760E+001
2.88469751E+001
3.04442352E+001
3.35255643E+001
3.31739374E+001
2.64583169E+001
2.16423975E+001
3.28340089E+001
3.24958252E+001
3.42275347E+001
3.01576903E+001
2.45140646E+001
2.36829373E+001
2.86098037E+001
2.73966913E+001
3.21702267E+001
2.53585308E+001
2.28999892E+001
3.18500787E+001
2.98912810E+001
3.49297950E+001
2.62575595E+001
2.21266937E+001
3.15425581E+001
2.83717009E+001
2.71731640E+001
2.96251320E+001
3.12435365E+001
2.42852996E+001
2.51494609E+001
2.34583286E+001
3.42467355E+001
2.60342612E+001
3.39166290E+001
2.26442655E+001
2.81422114E+001
3.35785628E+001
3.09550378E+001
2.93760651E+001
3.32554512E+001
2.69559066E+001
3.49345957E+001
3.29283577E+001
3.06761937E+001
3.26179862E+001
2.49035389E+001
2.40430308E+001
2.91214276E+001
2.79035708E+001
2.58060883E+001
3.55906083E+001
2.31861289E+001
3.23055302E+001
3.04036997E+001
2.67148983E+001
3.20106403E+001
2.88795618E+001
2.76674794E+001
3.01399047E+001
3.17139913E+001
3.49557428E+001
3.46284825E+001
2.46501189E+001
3.43086896E+001
2.55482731E+001
2.37600789E+001
3.39869526E+001
2.64744258E+001
3.14344442E+001
2.86248471E+001
3.36737218E+001
2.98767494E+001
3.56018575E+001
3.33615823E+001
2.74144625E+001
3.11513637E+001
3.30582533E+001
3.62419667E+001
2.96193710E+001
2.52787084E+001
2.43524959E+001
2.83779771E+001
3.27583787E+001
2.62015925E+001
3.08835828E+001
2.71574985E+001
3.24662124E+001
2.93561419E+001
3.56124727E+001
3.53064994E+001
3.49891751E+001
3.06085051E+001
2.81103887E+001
3.21787632E+001
3.46842374E+001
3.43710915E+001
2.49733519E+001
2.59240115E+001
3.40719018E+001
3.62453160E+001
3.18963954E+001
2.68764801E+001
2.90943047E+001
3.03457584E+001
3.37661818E+001
2.78455642E+001
3.34751745E+001
3.16185642E+001
3.68421610E+001
3.00704073E+001
3.31782034E+001
2.88199185E+001
2.56061709E+001
2.65849691E+001
3.13418247E+001
3.28958644E+001
2.75521062E+001
3.59557245E+001
3.62589764E+001
3.56571193E+001
3.53542763E+001
2.98036138E+001
3.50569003E+001
3.26066797E+001
3.10678987E+001
2.85416475E+001
3.47575524E+001
3.68520682E+001
3.44641765E+001
2.62629193E+001
3.23310694E+001
3.41706969E+001
2.72563795E+001
2.95179148E+001
3.07901369E+001
3.38826502E+001
2.82442525E+001
3.74344505E+001
3.20461962E+001
3.35956274E+001
3.05121082E+001
2.92365352E+001
3.17728758E+001
2.69242659E+001
3.65739162E+001
3.62780018E+001
3.33123817E+001
3.68561863E+001
3.59927832E+001
3.56964395E+001
2.79371537E+001
3.54120584E+001
3.02247728E+001
3.30302993E+001
3.51179555E+001
3.14864919E+001
3.74366700E+001
2.89294208E+001
3.48365024E+001
3.27492281E+001
3.45459638E+001
3.12088472E+001
2.76046658E+001
2.99330550E+001
3.42681653E+001
3.79781255E+001
3.24683037E+001
2.86221417E+001
3.39808737E+001
3.09132577E+001
3.68877851E+001
3.71648688E+001
3.66049692E+001
3.74445662E+001
2.96263307E+001
3.63254434E+001
3.21847300E+001
3.37056976E+001
3.60418895E+001
3.57622021E+001
2.82820311E+001
3.54799325E+001
3.34194601E+001
3.06230102E+001
3.79869715E+001
3.18991499E+001
3.52013456E+001
2.93103081E+001
3.49211095E+001
3.31439542E+001
3.16066042E+001
3.85151192E+001
3.03091832E+001
3.46435304E+001
3.28546709E+001
2.89736162E+001
3.43645330E+001
3.74524759E+001
3.71876306E+001
3.77268461E+001
3.69096464E+001
3.79859519E+001
3.66422425E+001
3.13089103E+001
3.63628765E+001
2.99968950E+001
3.25740419E+001
3.40862830E+001
3.60946959E+001
3.58151827E+001
3.85164065E+001
3.38059871E+001
3.09995220E+001
3.55470240E+001
3.22759173E+001
2.96548675E+001
3.52673847E+001
3.35237494E+001
3.90055743E+001
3.49987296E+001
3.19837872E+001
3.06809763E+001
3.77448355E+001
3.80072031E+001
3.74841693E+001
3.32379334E+001
3.82628699E+001
3.72181348E+001
3.47175580E+001
3.85196189E+001
3.69544331E+001
3.66864855E+001
3.16696461E+001
3.64209264E+001
3.44464075E+001
3.29468407E+001
3.03458686E+001
3.61518594E+001
3.90135259E+001
3.41607791E+001
3.58845859E+001
3.13583836E+001
3.26497821E+001
3.56140199E+001
3.38836326E+001
3.94903742E+001
3.53439425E+001
3.82740499E+001
3.80151275E+001
3.23436380E+001
3.85184372E+001
3.77658383E+001
3.10199658E+001
3.87715245E+001
3.75030561E+001
3.90081766E+001
3.35891847E+001
3.72504572E+001
3.50701405E+001
3.69849795E+001
3.67298953E+001
3.20283258E+001
3.47948629E+001
3.33011563E+001
3.64619356E+001
3.94908345E+001
3.62041541E+001
3.45147221E+001
3.16998926E+001
3.29922648E+001
3.59327990E+001
3.42305558E+001
3.99304482E+001
3.85371396E+001
3.87786484E+001
3.82894418E+001
3.90206627E+001
3.56709348E+001
3.80429632E+001
3.92553810E+001
3.77911979E+001
3.26872927E+001
3.94899655E+001
3.75409030E+001
3.39396885E+001
3.53940494E+001
3.72858973E+001
3.70320872E+001
3.51254956E+001
3.23572689E+001
3.99375879E+001
3.67737214E+001
3.36417797E+001
3.65156872E+001
3.48397547E+001
3.33346299E+001
3.62527434E+001
3.90166816E+001
3.87858710E+001
4.03657929E+001
3.92564888E+001
3.85405602E+001
3.94807929E+001
3.45607390E+001
3.83047854E+001
3.97132054E+001
3.59887037E+001
3.80551444E+001
3.99283078E+001
3.78152891E+001
3.30171700E+001
3.75616816E+001
3.57188462E+001
3.42617321E+001
3.73177490E+001
3.54459464E+001
4.03654632E+001
3.70595890E+001
3.39674593E+001
3.68105982E+001
3.51657655E+001
3.92586975E+001
3.65462761E+001
3.94879529E+001
3.90298410E+001
3.97105892E+001
3.36498261E+001
3.87951456E+001
3.99327833E+001
4.07581174E+001
3.85612993E+001
4.01473569E+001
3.48801658E+001
3.83220798E+001
3.62902224E+001
4.03607601E+001
3.80837077E+001