# vtk DataFile Version 1.0
ECM-CELL DIFFUSION-MECHANICS
ASCII

DATASET UNSTRUCTURED_GRID
POINTS       16 float
1.00000000E+000 0.00000000E+000 0.00000000E+000
1.00000000E+000 3.33330000E-001 0.00000000E+000
6.66670000E-001 0.00000000E+000 0.00000000E+000
6.65820000E-001 3.34130000E-001 0.00000000E+000
1.00000000E+000 6.66670000E-001 0.00000000E+000
3.33330000E-001 0.00000000E+000 0.00000000E+000
3.32060000E-001 3.35220000E-001 0.00000000E+000
6.64560000E-001 6.67980000E-001 0.00000000E+000
3.31570000E-001 6.69740000E-001 0.00000000E+000
0.00000000E+000 0.00000000E+000 0.00000000E+000
1.00000000E+000 1.00000000E+000 0.00000000E+000
6.66670000E-001 1.00000000E+000 0.00000000E+000
0.00000000E+000 3.33330000E-001 0.00000000E+000
3.33330000E-001 1.00000000E+000 0.00000000E+000
0.00000000E+000 6.66670000E-001 0.00000000E+000
0.00000000E+000 1.00000000E+000 0.00000000E+000

CELLS        9       45
   4           2           0           1           3  
   4          10          11           7           4  
   4           7           3           1           4  
   4          13          15          14           8  
   4          11          13           8           7  
   4          12           9           5           6  
   4          14          12           6           8  
   4           7           8           6           3  
   4           6           5           2           3  

CELL_TYPES        9
    9     9     9     9     9     9     9     9     9 
POINT_DATA       16
SCALARS Ux float
LOOKUP_TABLE default
-1.66533454E-016
1.67612457E-001
-2.49800181E-016
4.54683072E-001
8.72000897E-001
0.00000000E+000
2.69190365E-001
6.40820401E-001
7.23336539E-001
-1.66533454E-016
1.00000000E+000
1.00000000E+000
3.08294595E-001
1.00000000E+000
5.72273323E-001
1.00000000E+000
