# vtk DataFile Version 1.0
ECM-CELL DIFFUSION-MECHANICS
ASCII

DATASET UNSTRUCTURED_GRID
POINTS      908 float
1.50000000E+001 3.00000000E+001 0.00000000E+000
1.40000000E+001 3.00000000E+001 0.00000000E+000
1.42860000E+001 2.92860000E+001 0.00000000E+000
1.32860000E+001 2.92860000E+001 0.00000000E+000
1.30000000E+001 3.00000000E+001 0.00000000E+000
1.35710000E+001 2.85710000E+001 0.00000000E+000
1.25710000E+001 2.85710000E+001 0.00000000E+000
1.20000000E+001 3.00000000E+001 0.00000000E+000
1.28570000E+001 2.78570000E+001 0.00000000E+000
1.15710000E+001 2.85710000E+001 0.00000000E+000
1.10000000E+001 3.00000000E+001 0.00000000E+000
1.21430000E+001 2.71430000E+001 0.00000000E+000
1.10710000E+001 2.77050000E+001 0.00000000E+000
1.05000000E+001 2.91340000E+001 0.00000000E+000
1.00000000E+001 3.00000000E+001 0.00000000E+000
1.14290000E+001 2.64290000E+001 0.00000000E+000
1.00000000E+001 2.82680000E+001 0.00000000E+000
1.03570000E+001 2.69910000E+001 0.00000000E+000
9.50000000E+000 2.91340000E+001 0.00000000E+000
9.00000000E+000 3.00000000E+001 0.00000000E+000
1.07140000E+001 2.57140000E+001 0.00000000E+000
9.16730000E+000 2.83200000E+001 0.00000000E+000
9.50000000E+000 2.74020000E+001 0.00000000E+000
8.66730000E+000 2.91860000E+001 0.00000000E+000
9.85710000E+000 2.61250000E+001 0.00000000E+000
8.66730000E+000 2.74540000E+001 0.00000000E+000
8.33460000E+000 2.83710000E+001 0.00000000E+000
9.00000000E+000 2.65360000E+001 0.00000000E+000
8.00000000E+000 3.00000000E+001 0.00000000E+000
1.00000000E+001 2.50000000E+001 0.00000000E+000
7.66730000E+000 2.91860000E+001 0.00000000E+000
9.14290000E+000 2.54110000E+001 0.00000000E+000
7.50370000E+000 2.77120000E+001 0.00000000E+000
7.83640000E+000 2.67950000E+001 0.00000000E+000
7.00000000E+000 3.00000000E+001 0.00000000E+000
9.28570000E+000 2.42860000E+001 0.00000000E+000
7.88940000E+000 2.57950000E+001 0.00000000E+000
6.83640000E+000 2.85270000E+001 0.00000000E+000
8.03230000E+000 2.46700000E+001 0.00000000E+000
6.67280000E+000 2.70530000E+001 0.00000000E+000
6.00000000E+000 3.00000000E+001 0.00000000E+000
5.99030000E+000 2.91570000E+001 0.00000000E+000
8.57140000E+000 2.35710000E+001 0.00000000E+000
6.72580000E+000 2.60540000E+001 0.00000000E+000
5.82670000E+000 2.76830000E+001 0.00000000E+000
6.77880000E+000 2.50540000E+001 0.00000000E+000
7.31800000E+000 2.39560000E+001 0.00000000E+000
5.83470000E+000 2.65080000E+001 0.00000000E+000
5.00000000E+000 3.00000000E+001 0.00000000E+000
4.99030000E+000 2.91570000E+001 0.00000000E+000
7.85710000E+000 2.28570000E+001 0.00000000E+000
5.88780000E+000 2.55080000E+001 0.00000000E+000
4.98060000E+000 2.83140000E+001 0.00000000E+000
4.98860000E+000 2.71380000E+001 0.00000000E+000
6.14900000E+000 2.44060000E+001 0.00000000E+000
6.68820000E+000 2.33070000E+001 0.00000000E+000
4.99670000E+000 2.59620000E+001 0.00000000E+000
4.00000000E+000 3.00000000E+001 0.00000000E+000
5.25790000E+000 2.48600000E+001 0.00000000E+000
3.99030000E+000 2.91570000E+001 0.00000000E+000
7.14290000E+000 2.21430000E+001 0.00000000E+000
4.09740000E+000 2.75910000E+001 0.00000000E+000
5.51920000E+000 2.37580000E+001 0.00000000E+000
4.10540000E+000 2.64150000E+001 0.00000000E+000
5.97390000E+000 2.25930000E+001 0.00000000E+000
4.15830000E+000 2.54180000E+001 0.00000000E+000
3.10710000E+000 2.84340000E+001 0.00000000E+000
3.00000000E+000 3.00000000E+001 0.00000000E+000
4.41960000E+000 2.43150000E+001 0.00000000E+000
6.42860000E+000 2.14290000E+001 0.00000000E+000
3.21410000E+000 2.68670000E+001 0.00000000E+000
3.26710000E+000 2.58700000E+001 0.00000000E+000
4.62640000E+000 2.30640000E+001 0.00000000E+000
3.32000000E+000 2.48730000E+001 0.00000000E+000
5.08110000E+000 2.19000000E+001 0.00000000E+000
2.15090000E+000 2.88760000E+001 0.00000000E+000
2.00000000E+000 3.00000000E+001 0.00000000E+000
2.25800000E+000 2.73100000E+001 0.00000000E+000
3.52690000E+000 2.36220000E+001 0.00000000E+000
5.71430000E+000 2.07140000E+001 0.00000000E+000
2.38000000E+000 2.63190000E+001 0.00000000E+000
2.43290000E+000 2.53210000E+001 0.00000000E+000
3.73370000E+000 2.23710000E+001 0.00000000E+000
2.47680000E+000 2.43470000E+001 0.00000000E+000
4.36690000E+000 2.11850000E+001 0.00000000E+000
1.30180000E+000 2.77520000E+001 0.00000000E+000
1.15090000E+000 2.88760000E+001 0.00000000E+000
1.42380000E+000 2.67610000E+001 0.00000000E+000
1.00000000E+000 3.00000000E+001 0.00000000E+000
1.54580000E+000 2.57700000E+001 0.00000000E+000
2.68360000E+000 2.30960000E+001 0.00000000E+000
5.00000000E+000 2.00000000E+001 0.00000000E+000
1.58970000E+000 2.47950000E+001 0.00000000E+000
3.37280000E+000 2.15240000E+001 0.00000000E+000
5.69560000E-001 2.81340000E+001 0.00000000E+000
4.18670000E-001 2.92580000E+001 0.00000000E+000
2.68700000E+000 2.21010000E+001 0.00000000E+000
4.00600000E+000 2.03390000E+001 0.00000000E+000
1.63350000E+000 2.38210000E+001 0.00000000E+000
5.07760000E-001 2.71460000E+001 0.00000000E+000
5.00000000E+000 1.90000000E+001 0.00000000E+000
6.29790000E-001 2.61550000E+001 0.00000000E+000
-1.77640000E-015 3.00000000E+001 0.00000000E+000
7.74950000E-001 2.51720000E+001 0.00000000E+000
4.19640000E+000 1.94320000E+001 0.00000000E+000
1.63700000E+000 2.28260000E+001 0.00000000E+000
3.01190000E+000 2.06780000E+001 0.00000000E+000
-1.62660000E-001 2.85160000E+001 0.00000000E+000
8.18800000E-001 2.41980000E+001 0.00000000E+000
2.32610000E+000 2.12540000E+001 0.00000000E+000
-2.24470000E-001 2.75280000E+001 0.00000000E+000
-5.81330000E-001 2.92580000E+001 0.00000000E+000
3.20240000E+000 1.97710000E+001 0.00000000E+000
5.00000000E+000 1.80000000E+001 0.00000000E+000
1.64040000E+000 2.18300000E+001 0.00000000E+000
-2.86270000E-001 2.65410000E+001 0.00000000E+000
-1.41100000E-001 2.55580000E+001 0.00000000E+000
7.23650000E-001 2.32140000E+001 0.00000000E+000
4.19640000E+000 1.84320000E+001 0.00000000E+000
4.06420000E-003 2.45740000E+001 0.00000000E+000
2.34720000E+000 2.02840000E+001 0.00000000E+000
-1.00000000E+000 3.00000000E+001 0.00000000E+000
3.39280000E+000 1.88640000E+001 0.00000000E+000
1.66140000E+000 2.08610000E+001 0.00000000E+000
-1.12490000E+000 2.81960000E+001 0.00000000E+000
7.27070000E-001 2.22190000E+001 0.00000000E+000
2.53760000E+000 1.93780000E+001 0.00000000E+000
-9.10790000E-002 2.35910000E+001 0.00000000E+000
5.00000000E+000 1.70000000E+001 0.00000000E+000
-1.18670000E+000 2.72080000E+001 0.00000000E+000
-9.73980000E-001 2.61060000E+001 0.00000000E+000
-8.28820000E-001 2.51220000E+001 0.00000000E+000
-1.54360000E+000 2.89380000E+001 0.00000000E+000
4.14700000E+000 1.74440000E+001 0.00000000E+000
8.72770000E-001 2.12370000E+001 0.00000000E+000
1.68240000E+000 1.98910000E+001 0.00000000E+000
3.34350000E+000 1.78760000E+001 0.00000000E+000
-1.86220000E-001 2.26080000E+001 0.00000000E+000
-8.76430000E-001 2.41270000E+001 0.00000000E+000
-2.00000000E+000 3.00000000E+001 0.00000000E+000
2.52990000E+000 1.83800000E+001 0.00000000E+000
8.93800000E-001 2.02680000E+001 0.00000000E+000
-1.87440000E+000 2.67730000E+001 0.00000000E+000
5.00000000E+000 1.60000000E+001 0.00000000E+000
-4.05250000E-002 2.16260000E+001 0.00000000E+000
-1.66170000E+000 2.56700000E+001 0.00000000E+000
-2.08720000E+000 2.78760000E+001 0.00000000E+000
1.67470000E+000 1.88930000E+001 0.00000000E+000
4.14700000E+000 1.64440000E+001 0.00000000E+000
-9.71570000E-001 2.31430000E+001 0.00000000E+000
-1.70930000E+000 2.46750000E+001 0.00000000E+000
-2.54360000E+000 2.89380000E+001 0.00000000E+000
3.29410000E+000 1.68880000E+001 0.00000000E+000
1.05170000E-001 2.06440000E+001 0.00000000E+000
-8.55030000E-001 2.22000000E+001 0.00000000E+000
2.48060000E+000 1.73920000E+001 0.00000000E+000
7.60080000E-001 1.92910000E+001 0.00000000E+000
-1.75690000E+000 2.36790000E+001 0.00000000E+000
-7.09330000E-001 2.12180000E+001 0.00000000E+000
-3.00000000E+000 3.00000000E+001 0.00000000E+000
4.33010000E+000 1.55000000E+001 0.00000000E+000
1.66700000E+000 1.78960000E+001 0.00000000E+000
-2.58060000E+000 2.60370000E+001 0.00000000E+000
-2.79340000E+000 2.71400000E+001 0.00000000E+000
5.00000000E+000 1.50000000E+001 0.00000000E+000
-1.64040000E+000 2.27350000E+001 0.00000000E+000
3.47720000E+000 1.59440000E+001 0.00000000E+000
-2.85470000E-002 1.96680000E+001 0.00000000E+000
-2.61650000E+000 2.50880000E+001 0.00000000E+000
2.61110000E+000 1.64440000E+001 0.00000000E+000
7.52390000E-001 1.82940000E+001 0.00000000E+000
-1.52380000E+000 2.17920000E+001 0.00000000E+000
1.79760000E+000 1.69480000E+001 0.00000000E+000
-7.86590000E-001 2.02250000E+001 0.00000000E+000
-2.66410000E+000 2.40920000E+001 0.00000000E+000
-3.54360000E+000 2.79380000E+001 0.00000000E+000
3.66030000E+000 1.50000000E+001 0.00000000E+000
4.33010000E+000 1.45000000E+001 0.00000000E+000
-3.49950000E+000 2.64040000E+001 0.00000000E+000
-2.55810000E+000 2.31010000E+001 0.00000000E+000
5.00000000E+000 1.40000000E+001 0.00000000E+000
-1.62270000E-001 1.86910000E+001 0.00000000E+000
2.79420000E+000 1.55000000E+001 0.00000000E+000
-1.60110000E+000 2.07990000E+001 0.00000000E+000
8.74410000E-001 1.73040000E+001 0.00000000E+000
-4.00000000E+000 3.00000000E+001 0.00000000E+000
-4.00000000E+000 2.90000000E+001 0.00000000E+000
-3.53540000E+000 2.54550000E+001 0.00000000E+000
-2.44160000E+000 2.21580000E+001 0.00000000E+000
1.92820000E+000 1.60000000E+001 0.00000000E+000
-9.20310000E-001 1.92480000E+001 0.00000000E+000
-3.57130000E+000 2.45060000E+001 0.00000000E+000
-4.02470000E-002 1.77020000E+001 0.00000000E+000
-4.24980000E+000 2.72020000E+001 0.00000000E+000
1.00500000E+000 1.63560000E+001 0.00000000E+000
-1.67830000E+000 1.98050000E+001 0.00000000E+000
-3.46530000E+000 2.35140000E+001 0.00000000E+000
-2.51060000E+000 2.12060000E+001 0.00000000E+000
3.66030000E+000 1.40000000E+001 0.00000000E+000
-4.24980000E+000 2.62020000E+001 0.00000000E+000
-7.93430000E-001 1.83160000E+001 0.00000000E+000
4.33010000E+000 1.35000000E+001 0.00000000E+000
5.00000000E+000 1.30000000E+001 0.00000000E+000
2.79420000E+000 1.45000000E+001 0.00000000E+000
[...]
POINT_DATA      908
SCALARS Ux float
LOOKUP_TABLE default
1.00000000E+000
1.14474992E+000
1.00000000E+000
1.38450436E+000
1.55273906E+000
1.00000000E+000
1.56764884E+000
2.13682829E+000
1.00000000E+000
2.27335001E+000
2.89415358E+000
1.00000000E+000
2.24105302E+000
3.30349917E+000
3.83112460E+000
1.00000000E+000
3.49110429E+000
2.50172542E+000
4.28264754E+000
4.85955768E+000
1.00000000E+000
4.39324590E+000
3.63626928E+000
5.19212670E+000
2.31083307E+000
4.62281701E+000
5.35411869E+000
3.61128066E+000
6.00148706E+000
1.00000000E+000
6.36140896E+000
2.52475025E+000
6.14909039E+000
5.26300236E+000
7.17969937E+000
1.00000000E+000
4.48365339E+000
7.29450096E+000
3.21578083E+000
6.95466712E+000
8.48734721E+000
8.46641171E+000
1.00000000E+000
6.39347121E+000
8.40233627E+000
5.52024607E+000
3.57858462E+000
7.93666787E+000
9.79154449E+000
9.78315706E+000
1.00000000E+000
7.35367487E+000
9.66124825E+000
9.43441412E+000
6.04957016E+000
3.85199158E+000
8.99043808E+000
1.10924978E+001
8.06497835E+000
1.10968693E+001
1.00000000E+000
1.07724141E+001
6.70099967E+000
1.05560875E+001
4.52574546E+000
1.01786575E+001
1.21840737E+001
1.22902235E+001
9.37456902E+000
1.00000000E+000
1.18859799E+001
1.17280012E+001
8.14063803E+000
1.14910714E+001
5.97043431E+000
1.33501453E+001
1.35264733E+001
1.32304240E+001
1.09692311E+001
1.00000000E+000
1.30454697E+001
1.30109022E+001
1.03025822E+001
1.29604728E+001
8.23642286E+000
1.43207771E+001
1.44592129E+001
1.42659892E+001
1.45747028E+001
1.41939969E+001
1.28444021E+001
1.00000000E+000
1.43032658E+001
1.14266897E+001
1.51037303E+001
1.51814683E+001
1.31509357E+001
1.03388043E+001
1.44745023E+001
1.52585132E+001
1.37772917E+001
1.53025857E+001
1.55660180E+001
1.53279338E+001
1.26562569E+001
1.48907970E+001
1.36912118E+001
1.57372553E+001
1.56100450E+001
1.47129128E+001
1.59066121E+001
1.60528530E+001
1.44733644E+001
1.85627122E+001
1.55769636E+001
1.61268297E+001
1.62541783E+001
1.61902357E+001
1.68947276E+001
1.64323078E+001
1.59866296E+001
1.63354518E+001
1.70260371E+001
1.65538213E+001
1.65729899E+001
1.68924751E+001
1.72219635E+001
1.70183811E+001
2.19411810E+001
1.67794766E+001
1.68725335E+001
1.70987757E+001
1.67671128E+001
2.06949273E+001
1.75678074E+001
1.79291391E+001
2.00658316E+001
1.77816857E+001
1.75948859E+001
1.70223206E+001
1.97915528E+001
1.87375332E+001
1.73320133E+001
2.45961447E+001
1.84431625E+001
1.75231008E+001
1.71890006E+001
1.98112968E+001
2.35507551E+001
1.82839912E+001
1.79899762E+001
1.73161817E+001
2.27744433E+001
1.93331134E+001
1.88860271E+001
2.21740195E+001
2.04511036E+001
1.85717047E+001
1.96656654E+001
1.74460050E+001
2.58824475E+001
2.18911977E+001
1.79907839E+001
1.77381898E+001
2.69944442E+001
1.91456124E+001
2.50778169E+001
2.07885855E+001
1.83908078E+001
2.43479566E+001
2.21379546E+001
1.98389682E+001
2.38032033E+001
2.08966337E+001
1.89448800E+001
1.78724151E+001
2.71031451E+001
2.80628309E+001
1.82037944E+001
1.95263509E+001
2.90218220E+001
2.23827701E+001
2.63118985E+001
2.09068150E+001
2.38922430E+001
1.77821375E+001
1.78101642E+001
1.85786833E+001
2.02146360E+001
2.56832031E+001
2.22705684E+001
1.90490615E+001
2.38940124E+001
1.81531094E+001
2.55512673E+001
2.21167916E+001
1.96274585E+001
2.11399039E+001
2.91641530E+001
1.84721030E+001
2.35315646E+001
3.00147895E+001
3.09096902E+001
2.83693131E+001
2.03160343E+001
1.88613133E+001
2.77007388E+001
2.32505668E+001
2.54884125E+001
1.78414142E+001
1.78723820E+001
1.79735881E+001
2.71442762E+001
1.93942273E+001
2.22380780E+001
2.49622054E+001
1.82449761E+001
2.11753702E+001
2.00141820E+001
2.44847476E+001
1.85758283E+001
3.09430785E+001
3.17622800E+001
2.69522341E+001
3.02041909E+001
2.33635925E+001
3.25441112E+001
1.90223072E+001
2.95010315E+001
2.07991347E+001
2.21402616E+001
2.65759536E+001
2.89065447E+001
1.95736580E+001
2.45162912E+001
2.59754066E+001
2.83597713E+001
2.32186312E+001
2.16574448E+001
2.02590592E+001
3.25523224E+001
3.19047757E+001
2.79082712E+001
2.56584767E+001
3.32737987E+001
3.12392947E+001
3.40973138E+001
2.43846060E+001
2.10638919E+001
2.26875435E+001
3.06080275E+001
2.74552440E+001
3.00320287E+001
2.37888477E+001
2.20059601E+001
2.54685408E+001
2.70504397E+001
2.95065706E+001
3.33732612E+001
3.39520876E+001
3.27718295E+001
3.47231937E+001
2.89947054E+001
3.54387511E+001
2.30548284E+001
3.21677936E+001
2.50288017E+001
2.65685180E+001
3.15578328E+001
2.85114467E+001
3.10172290E+001
2.42258056E+001
2.60896979E+001
3.04556418E+001
2.79836223E+001
3.53442094E+001
3.47354774E+001
3.41901951E+001
3.60239773E+001
3.36399088E+001
3.67263573E+001
2.99436149E+001
3.30567381E+001
2.54669840E+001
2.74404760E+001
3.24842864E+001
2.93685203E+001
3.19230727E+001
2.67980515E+001
3.65514040E+001
3.60118281E+001
3.54305027E+001
3.13674227E+001
3.72260579E+001
3.49277711E+001
2.88104971E+001
3.43929164E+001
3.78311204E+001
3.38503430E+001
3.07890723E+001
2.81351269E+001
3.32672816E+001
3.01914331E+001
3.71582083E+001
3.76775258E+001
3.66378007E+001
3.27274754E+001
3.82647344E+001
3.61842194E+001
3.56962869E+001
3.21253024E+001
2.95297428E+001
3.51445360E+001
3.88896246E+001
3.45979515E+001
3.15471253E+001
3.40394017E+001
3.81949714E+001
3.76884910E+001
3.86469266E+001
3.72842172E+001
3.08704941E+001
3.34681583E+001
3.68359023E+001
3.92568250E+001
3.63351242E+001
3.28712865E+001
3.57825765E+001
3.97868647E+001
3.52683432E+001
3.22348133E+001
3.87348663E+001
3.91743398E+001
3.46898121E+001
3.83392250E+001
3.95710858E+001
3.79411865E+001
3.74409118E+001
3.41382533E+001
4.00969803E+001
3.69435896E+001
3.64250670E+001
3.34999389E+001
4.06484443E+001
3.58995585E+001
3.96154063E+001
3.92720262E+001
4.00033310E+001
3.53439072E+001
3.88808477E+001
4.03434062E+001
3.84415327E+001
3.79462317E+001
3.47644816E+001
4.08973312E+001
3.74877001E+001
3.69649425E+001
4.13515624E+001
3.99774727E+001
3.64713744E+001
4.04015306E+001
3.96292455E+001
4.07365629E+001
4.11224476E+001
3.93503262E+001
3.58988155E+001
3.89194129E+001
3.84639122E+001
4.15870902E+001
3.80067179E+001
3.75180092E+001
4.20337827E+001
4.06751700E+001
4.02521341E+001
4.10423997E+001
3.70165932E+001
4.14311486E+001
4.00070518E+001
4.17531096E+001
3.97278879E+001
3.93377147E+001
3.88889217E+001
4.22139691E+001
3.84720670E+001
4.25715955E+001
3.79833829E+001
4.09884556E+001
4.13556317E+001
4.07022672E+001
4.17186745E+001
4.20511712E+001
4.04602709E+001
4.00798008E+001
4.23729007E+001
3.96992124E+001
3.93314313E+001
4.27516363E+001
3.89225033E+001
4.15667472E+001
4.30957783E+001
4.19348026E+001
4.13203565E+001
4.10400576E+001
4.22460567E+001
4.07178251E+001
4.25861282E+001
4.03512380E+001
4.28532707E+001
4.00502980E+001
3.96945291E+001
4.32249850E+001
4.21150533E+001
4.18324248E+001
4.24400253E+001
4.15871268E+001
4.12488642E+001
4.34920132E+001
4.27590247E+001
4.09454418E+001
4.30523649E+001
4.32983369E+001
4.07045210E+001
4.04284728E+001
4.36015928E+001
4.22611818E+001
4.16887703E+001
4.25150689E+001
4.19758932E+001
4.13767062E+001
4.28569065E+001
4.31387743E+001
4.38829783E+001
4.34248719E+001
4.11896158E+001
4.36316718E+001
4.09767612E+001
4.39526089E+001
4.29096118E+001
4.20399704E+001
4.17828392E+001
4.26072091E+001
4.23384827E+001
4.32238982E+001
4.16103619E+001
4.35133375E+001
4.37665248E+001
4.41629298E+001
4.39873598E+001
4.14709992E+001
4.42400329E+001
4.31906095E+001
4.28959955E+001
4.19877860E+001
4.22607739E+001
4.25536383E+001
4.35219660E+001
4.18395232E+001
4.37811549E+001
4.40557406E+001
4.17431555E+001
4.44455901E+001
4.42371062E+001
4.44885980E+001
4.31484128E+001
4.21167210E+001
4.27943131E+001
4.24302384E+001
4.34570619E+001
4.19436138E+001
4.37712455E+001
4.40531453E+001
4.18932154E+001
4.42980136E+001
4.44892026E+001
4.46331975E+001
4.25470307E+001
4.29473233E+001
4.20956851E+001
4.33211628E+001
4.46830051E+001
4.36250995E+001
4.17926417E+001
4.39716810E+001
4.14638871E+001
4.42281295E+001
4.44905370E+001
4.46489807E+001
4.48295614E+001
4.27108020E+001
4.22147995E+001
4.04618953E+001
4.30794854E+001
4.34588144E+001
4.38327499E+001
4.48497164E+001
4.41567611E+001
4.16546214E+001
4.44270525E+001
4.11488587E+001
4.46576493E+001
3.93984139E+001
4.23329511E+001
4.48292528E+001
4.49411210E+001
4.27700798E+001
4.31414448E+001
4.36056164E+001
4.02955315E+001
4.39627902E+001
4.17487511E+001
4.49728076E+001
4.43042909E+001
3.83501809E+001
4.45430808E+001
4.47910992E+001
4.09647922E+001
3.92599957E+001
4.49319325E+001
4.21986833E+001
4.50632953E+001
4.26714677E+001
4.33025555E+001
4.37508328E+001
3.71129874E+001
4.01268927E+001
4.40965451E+001
4.15218880E+001
4.44145698E+001
4.50687412E+001
3.81630781E+001
4.47166334E+001
3.90686511E+001
4.04933753E+001
4.49178998E+001
3.58411854E+001
4.19828231E+001
4.27849223E+001
4.50885905E+001
3.69928195E+001
4.33985033E+001
4.38306648E+001
4.41555631E+001
3.95217804E+001
3.80345597E+001
4.50734653E+001
4.10813620E+001
4.45465629E+001
3.43820822E+001
3.56872437E+001
4.47836865E+001
3.85056270E+001
4.22762291E+001
3.99107245E+001
3.68304623E+001
4.30204811E+001
4.14161844E+001
4.51791518E+001
4.35264630E+001
4.42343262E+001
4.39296206E+001
4.51562019E+001
3.89727462E+001
3.73816073E+001
3.28887387E+001
4.45934377E+001
4.03206436E+001
3.39667918E+001
3.52857419E+001
4.49575802E+001
4.24922573E+001
3.78629343E+001
4.16903891E+001
3.93873273E+001
3.61045951E+001
4.31054648E+001
4.47399639E+001
4.42551323E+001
4.51880042E+001
4.06706909E+001
4.39619224E+001
3.12121261E+001
4.35778098E+001
3.24146720E+001
4.51666347E+001
3.83484706E+001
3.34971105E+001
3.66638004E+001
3.98055626E+001
4.50143320E+001
4.44469137E+001
3.44401314E+001
4.20623683E+001
2.94958424E+001
4.11310347E+001
3.72176791E+001
4.48633044E+001
3.87703820E+001
3.52852855E+001
4.40723181E+001
3.05040984E+001
4.37268385E+001
3.17256703E+001
4.03545373E+001
3.30671696E+001
4.45678256E+001
4.26497889E+001
3.77120735E+001
3.59202044E+001
4.32122851E+001
3.40109157E+001
4.42590631E+001
2.75975864E+001
3.94098003E+001
4.15143905E+001
2.87087569E+001
3.64841274E+001
4.38054892E+001
3.45795949E+001
2.97298865E+001
3.12342568E+001
4.08016719E+001
3.25846871E+001
3.82196164E+001
4.21698500E+001
2.57912411E+001
4.33258656E+001
3.99531967E+001
3.52227024E+001
3.32230574E+001
2.67152188E+001
3.70678472E+001
4.14006301E+001
2.78430634E+001
4.26771393E+001
3.88663570E+001
2.88894500E+001
3.57601369E+001
3.04234336E+001
3.37949604E+001
4.06547936E+001
2.38214906E+001
3.18008790E+001
4.20458157E+001
2.48288402E+001
3.75632677E+001
3.44023654E+001
3.97071087E+001
3.24389195E+001
2.57639224E+001
4.12354369E+001
2.69165635E+001
3.63467134E+001
2.19706284E+001
2.79756916E+001
2.95290283E+001
3.30563099E+001
2.29178445E+001
3.85544686E+001
3.49446566E+001
3.09369855E+001
4.03984342E+001
2.39380062E+001
3.67555083E+001
1.99690833E+001
2.50381332E+001
3.36659207E+001
3.16206057E+001
3.73933930E+001
3.54182698E+001
2.61970816E+001
2.77031824E+001
3.93883878E+001
2.09938780E+001
2.92504092E+001
2.19586759E+001
3.40933089E+001
3.22418728E+001
1.80971985E+001
3.00281294E+001
2.31529474E+001
3.83607969E+001
3.58438923E+001
2.58876202E+001
1.90588102E+001
2.42598518E+001
2.73924121E+001
3.65319435E+001
3.27189270E+001
3.45700391E+001
3.07169989E+001
2.01110035E+001
3.71585590E+001
2.82490078E+001
1.60736010E+001
3.31515445E+001
2.10602702E+001
1.71229558E+001
3.52209190E+001
3.12613097E+001
2.55542967E+001
2.39275606E+001
2.22614670E+001
2.90357032E+001
3.59272164E+001
1.81220042E+001
1.41832326E+001
3.38809610E+001
2.64262873E+001
3.17430698E+001
1.91614769E+001
1.51642355E+001
2.96385907E+001
2.35582203E+001
2.72882517E+001
2.19022968E+001
3.45405187E+001
1.62743386E+001
2.01117097E+001
3.24481364E+001
1.21104284E+001
3.01882643E+001
2.45036702E+001
2.80863694E+001
1.32036892E+001
1.70865364E+001
3.31835757E+001
2.53800719E+001
1.42844486E+001
3.09647615E+001
1.81291672E+001
1.01336124E+001
2.86902873E+001
2.11096008E+001
2.28010277E+001
1.11820023E+001
1.93202163E+001
1.52079809E+001
2.62491022E+001
1.24225667E+001
3.16737155E+001
2.37368718E+001
2.94352313E+001
7.84633872E+000
1.60291848E+001
2.70566809E+001
9.14866648E+000
1.33203241E+001
2.46248230E+001
1.73070421E+001
1.03780888E+001
3.02166756E+001
1.84659622E+001
2.02787454E+001
4.86883421E+000
2.78677191E+001
2.19714210E+001
1.42541006E+001
2.54936538E+001
1.15072799E+001
2.29182105E+001
2.86165840E+001
1.50450067E+001
-7.73860143E-014
4.67046045E+000
2.62677219E+001
1.24048370E+001
1.62696317E+001
2.38080690E+001
6.89172627E+000
8.87106270E+000
2.12569634E+001
2.70811685E+001
-7.40796313E-014
1.32863606E+001
1.75493939E+001
1.93510104E+001
2.56078335E+000
2.46368279E+001
1.00517309E+001
2.21990791E+001
1.39809164E+001
3.75116604E-014
2.54162428E+001
1.69463057E+000
3.64787383E+000
1.10032890E+001
2.29863622E+001
1.52880290E+001
5.98536285E+000
2.04767938E+001
7.69704081E+000
1.85353416E+001
1.17739987E+001
-6.65717481E-014
2.38245795E+001
1.64961644E+001
1.38997244E+000
2.13121220E+001
8.81963445E+000
1.88388869E+001
2.63971345E+000
1.68049295E+001
2.21108437E+001
1.02695630E-014
9.57584592E+000
1.96248177E+001
4.34739603E+000
1.19903489E+001
5.81988161E+000
1.02954129E+000
1.70950857E+001
1.51529389E+001
2.04773202E+001
1.31182963E+001
-1.70974346E-013
1.79138668E+001
1.90344906E+000
6.81357676E+000
9.82319916E+000
1.54220585E+001
8.81623513E-001
3.27224971E+000
1.87271327E+001
-1.82076576E-014
1.61881881E+001
4.25632545E+000
1.67734573E+000
1.36315087E+001
1.70550553E+001
1.15152724E+001
7.59921949E-001
6.64851381E+000
9.55915580E+000
1.44247100E+001
2.72251612E+000
-3.19744231E-014
1.52554225E+001
1.17196000E+001
1.33067445E+000
9.59094169E+000
1.26338823E+001
6.48220789E-001
4.47806750E+000
2.46469511E-014
6.41137967E+000
1.35226490E+001
8.12610346E+000
2.71475741E+000
9.59646262E+000
6.42092833E-001
1.05483196E+001
-6.97220059E-014
1.16204687E+001
1.51005465E+000
7.87310619E+000
5.95381847E+000
3.95961503E+000
8.56121604E+000
-2.12718732E-013
9.75183288E+000
6.12699100E+000
2.64827253E+000
7.37676363E-001
6.42602532E+000
7.61214667E+000
-5.01820807E-014
1.30245520E+000
3.69538620E+000
2.56161633E+000
3.78057497E+000
4.14627537E+000
6.44509881E-001
2.68864565E+000
5.02839408E+000
-6.75015599E-014
1.46596432E+000
6.36647856E-001
2.42982915E+000
2.17312319E+000
2.66453526E-014
3.81916720E-014
7.14253171E-001
1.35919071E+000
1.98195426E+000
1.48922731E+000
1.45794666E+000
3.90798505E-014
-1.58095759E-013
1.37391949E+000
1.13243287E+000
6.53136272E-001
-7.28306304E-014
1.05041825E+000
-1.45661261E-013
6.75918089E-001
6.66876129E-001
-3.73034936E-014
7.61842730E-001
-1.75859327E-013
6.60132856E-001
-9.23705556E-014
-1.91846539E-013
-1.42108547E-013
-3.19744231E-014
-1.03028697E-013
-1.49213975E-013
-1.35003120E-013
-1.13686838E-013
