# vtk DataFile Version 1.0
ECM-CELL DIFFUSION-MECHANICS
ASCII

DATASET UNSTRUCTURED_GRID
POINTS      697 float
1.50000000E+001 3.00000000E+001 0.00000000E+000
1.40000000E+001 3.00000000E+001 0.00000000E+000
1.42860000E+001 2.92860000E+001 0.00000000E+000
1.30000000E+001 3.00000000E+001 0.00000000E+000
1.35710000E+001 2.85710000E+001 0.00000000E+000
1.27960000E+001 2.94990000E+001 0.00000000E+000
1.30810000E+001 2.87840000E+001 0.00000000E+000
1.25910000E+001 2.89970000E+001 0.00000000E+000
1.20000000E+001 3.00000000E+001 0.00000000E+000
1.28570000E+001 2.78570000E+001 0.00000000E+000
1.18970000E+001 2.87080000E+001 0.00000000E+000
1.11010000E+001 2.92100000E+001 0.00000000E+000
1.16730000E+001 2.77810000E+001 0.00000000E+000
1.10000000E+001 3.00000000E+001 0.00000000E+000
1.21430000E+001 2.71430000E+001 0.00000000E+000
1.12030000E+001 2.84200000E+001 0.00000000E+000
1.00000000E+001 3.00000000E+001 0.00000000E+000
1.14290000E+001 2.64290000E+001 0.00000000E+000
1.01170000E+001 2.79700000E+001 0.00000000E+000
9.00000000E+000 3.00000000E+001 0.00000000E+000
1.07140000E+001 2.57140000E+001 0.00000000E+000
9.01610000E+000 2.87600000E+001 0.00000000E+000
9.87330000E+000 2.66170000E+001 0.00000000E+000
9.03230000E+000 2.75200000E+001 0.00000000E+000
8.00000000E+000 3.00000000E+001 0.00000000E+000
1.00000000E+001 2.50000000E+001 0.00000000E+000
7.82990000E+000 2.77550000E+001 0.00000000E+000
8.30970000E+000 2.65020000E+001 0.00000000E+000
7.00000000E+000 3.00000000E+001 0.00000000E+000
9.28570000E+000 2.42860000E+001 0.00000000E+000
6.81370000E+000 2.89950000E+001 0.00000000E+000
8.43650000E+000 2.48840000E+001 0.00000000E+000
6.62750000E+000 2.79900000E+001 0.00000000E+000
7.58720000E+000 2.54830000E+001 0.00000000E+000
6.00000000E+000 3.00000000E+001 0.00000000E+000
8.57140000E+000 2.35710000E+001 0.00000000E+000
6.22710000E+000 2.71150000E+001 0.00000000E+000
6.70700000E+000 2.58620000E+001 0.00000000E+000
5.63920000E+000 2.80950000E+001 0.00000000E+000
6.92450000E+000 2.47070000E+001 0.00000000E+000
5.82670000E+000 2.62400000E+001 0.00000000E+000
5.00000000E+000 3.00000000E+001 0.00000000E+000
7.85710000E+000 2.28570000E+001 0.00000000E+000
4.82550000E+000 2.91000000E+001 0.00000000E+000
7.05940000E+000 2.33940000E+001 0.00000000E+000
4.65090000E+000 2.81990000E+001 0.00000000E+000
5.04550000E+000 2.64360000E+001 0.00000000E+000
5.35090000E+000 2.55610000E+001 0.00000000E+000
6.26170000E+000 2.39310000E+001 0.00000000E+000
4.45760000E+000 2.74150000E+001 0.00000000E+000
5.56840000E+000 2.44060000E+001 0.00000000E+000
4.00000000E+000 3.00000000E+001 0.00000000E+000
7.14290000E+000 2.21430000E+001 0.00000000E+000
4.26420000E+000 2.66310000E+001 0.00000000E+000
4.87520000E+000 2.48810000E+001 0.00000000E+000
3.73110000E+000 2.82240000E+001 0.00000000E+000
4.12630000E+000 2.60990000E+001 0.00000000E+000
4.43180000E+000 2.52240000E+001 0.00000000E+000
5.49440000E+000 2.32170000E+001 0.00000000E+000
3.98830000E+000 2.55660000E+001 0.00000000E+000
3.00000000E+000 3.00000000E+001 0.00000000E+000
3.47670000E+000 2.66210000E+001 0.00000000E+000
6.42860000E+000 2.14290000E+001 0.00000000E+000
2.90560000E+000 2.91240000E+001 0.00000000E+000
4.19570000E+000 2.43740000E+001 0.00000000E+000
2.81130000E+000 2.82480000E+001 0.00000000E+000
5.57780000E+000 2.19660000E+001 0.00000000E+000
3.40700000E+000 2.53770000E+001 0.00000000E+000
2.75020000E+000 2.74290000E+001 0.00000000E+000
4.72710000E+000 2.25030000E+001 0.00000000E+000
2.68920000E+000 2.66100000E+001 0.00000000E+000
4.12160000E+000 2.31850000E+001 0.00000000E+000
2.75740000E+000 2.58990000E+001 0.00000000E+000
2.00000000E+000 3.00000000E+001 0.00000000E+000
3.51610000E+000 2.38670000E+001 0.00000000E+000
3.17080000E+000 2.45270000E+001 0.00000000E+000
2.82560000E+000 2.51870000E+001 0.00000000E+000
5.71430000E+000 2.07140000E+001 0.00000000E+000
1.86760000E+000 2.82240000E+001 0.00000000E+000
1.80160000E+000 2.65190000E+001 0.00000000E+000
1.98440000E+000 2.49620000E+001 0.00000000E+000
3.74780000E+000 2.16710000E+001 0.00000000E+000
1.00000000E+000 3.00000000E+001 0.00000000E+000
2.61170000E+000 2.34180000E+001 0.00000000E+000
9.61960000E-001 2.91000000E+001 0.00000000E+000
5.00000000E+000 2.00000000E+001 0.00000000E+000
9.23930000E-001 2.81990000E+001 0.00000000E+000
9.18950000E-001 2.73140000E+001 0.00000000E+000
9.13980000E-001 2.64290000E+001 0.00000000E+000
1.02860000E+000 2.55830000E+001 0.00000000E+000
3.88420000E+000 2.04200000E+001 0.00000000E+000
1.14330000E+000 2.47370000E+001 0.00000000E+000
5.00000000E+000 1.90000000E+001 0.00000000E+000
1.42530000E+000 2.38530000E+001 0.00000000E+000
-1.77640000E-015 3.00000000E+001 0.00000000E+000
1.70730000E+000 2.29680000E+001 0.00000000E+000
2.23790000E+000 2.19040000E+001 0.00000000E+000
-5.28010000E-002 2.81590000E+001 0.00000000E+000
2.76840000E+000 2.08400000E+001 0.00000000E+000
-3.58220000E-002 2.63470000E+001 0.00000000E+000
5.00000000E+000 1.80000000E+001 0.00000000E+000
1.54440000E-001 2.45700000E+001 0.00000000E+000
-1.00000000E+000 3.00000000E+001 0.00000000E+000
-1.01480000E+000 2.90600000E+001 0.00000000E+000
5.93400000E-001 2.27310000E+001 0.00000000E+000
2.67450000E+000 1.95810000E+001 0.00000000E+000
-1.02950000E+000 2.81190000E+001 0.00000000E+000
-1.00760000E+000 2.71920000E+001 0.00000000E+000
3.79030000E+000 1.81610000E+001 0.00000000E+000
5.00000000E+000 1.70000000E+001 0.00000000E+000
-9.85630000E-001 2.62650000E+001 0.00000000E+000
1.32910000E+000 2.06460000E+001 0.00000000E+000
-9.10010000E-001 2.53340000E+001 0.00000000E+000
-8.34400000E-001 2.44030000E+001 0.00000000E+000
-6.77450000E-001 2.34480000E+001 0.00000000E+000
-2.00000000E+000 3.00000000E+001 0.00000000E+000
2.58070000E+000 1.83220000E+001 0.00000000E+000
-2.02230000E+000 2.80830000E+001 0.00000000E+000
5.00000000E+000 1.60000000E+001 0.00000000E+000
-5.20490000E-001 2.24930000E+001 0.00000000E+000
-1.98910000E+000 2.61860000E+001 0.00000000E+000
-3.15340000E-001 2.14730000E+001 0.00000000E+000
2.57510000E+000 1.72380000E+001 0.00000000E+000
-1.87360000E+000 2.42840000E+001 0.00000000E+000
-1.10190000E-001 2.04520000E+001 0.00000000E+000
3.78480000E+000 1.60770000E+001 0.00000000E+000
-3.00000000E+000 3.00000000E+001 0.00000000E+000
1.29260000E+000 1.82970000E+001 0.00000000E+000
5.00000000E+000 1.50000000E+001 0.00000000E+000
-3.00750000E+000 2.90230000E+001 0.00000000E+000
-3.01500000E+000 2.80470000E+001 0.00000000E+000
-3.00380000E+000 2.70770000E+001 0.00000000E+000
-1.64690000E+000 2.23500000E+001 0.00000000E+000
-2.99260000E+000 2.61070000E+001 0.00000000E+000
-5.27910000E-002 1.93610000E+001 0.00000000E+000
-2.95270000E+000 2.51370000E+001 0.00000000E+000
2.56960000E+000 1.61540000E+001 0.00000000E+000
-2.91280000E+000 2.41660000E+001 0.00000000E+000
5.00000000E+000 1.40000000E+001 0.00000000E+000
-4.00000000E+000 3.00000000E+001 0.00000000E+000
-1.36060000E+000 2.03300000E+001 0.00000000E+000
4.60210000E-003 1.82710000E+001 0.00000000E+000
-2.84300000E+000 2.31860000E+001 0.00000000E+000
-4.00750000E+000 2.80230000E+001 0.00000000E+000
2.57740000E+000 1.51120000E+001 0.00000000E+000
-3.99630000E+000 2.60540000E+001 0.00000000E+000
-2.77330000E+000 2.22060000E+001 0.00000000E+000
1.31420000E+000 1.61550000E+001 0.00000000E+000
3.79260000E+000 1.40350000E+001 0.00000000E+000
3.16910000E-002 1.72140000E+001 0.00000000E+000
5.00000000E+000 1.30000000E+001 0.00000000E+000
-2.69210000E+000 2.12070000E+001 0.00000000E+000
-3.95640000E+000 2.40830000E+001 0.00000000E+000
-5.00000000E+000 3.00000000E+001 0.00000000E+000
-5.00000000E+000 2.90000000E+001 0.00000000E+000
-1.25310000E+000 1.82120000E+001 0.00000000E+000
-5.00000000E+000 2.80000000E+001 0.00000000E+000
-2.61100000E+000 2.02080000E+001 0.00000000E+000
2.58530000E+000 1.40700000E+001 0.00000000E+000
-5.00000000E+000 2.70000000E+001 0.00000000E+000
5.87790000E-002 1.61570000E+001 0.00000000E+000
-5.00000000E+000 2.60000000E+001 0.00000000E+000
-3.88660000E+000 2.21030000E+001 0.00000000E+000
5.00000000E+000 1.20000000E+001 0.00000000E+000
-5.00000000E+000 2.50000000E+001 0.00000000E+000
-2.56090000E+000 1.91810000E+001 0.00000000E+000
-5.00000000E+000 2.40000000E+001 0.00000000E+000
1.34160000E+000 1.40680000E+001 0.00000000E+000
2.58460000E+000 1.30230000E+001 0.00000000E+000
7.83870000E-002 1.51120000E+001 0.00000000E+000
-2.51090000E+000 1.81540000E+001 0.00000000E+000
-5.00000000E+000 2.30000000E+001 0.00000000E+000
3.79200000E+000 1.19870000E+001 0.00000000E+000
-3.80550000E+000 2.01040000E+001 0.00000000E+000
-1.20760000E+000 1.61220000E+001 0.00000000E+000
5.00000000E+000 1.10000000E+001 0.00000000E+000
-5.00000000E+000 2.20000000E+001 0.00000000E+000
-2.49240000E+000 1.71210000E+001 0.00000000E+000
9.79950000E-002 1.40660000E+001 0.00000000E+000
2.58390000E+000 1.19750000E+001 0.00000000E+000
-5.00000000E+000 2.10000000E+001 0.00000000E+000
-3.75540000E+000 1.80770000E+001 0.00000000E+000
-2.47390000E+000 1.60870000E+001 0.00000000E+000
5.00000000E+000 1.00000000E+001 0.00000000E+000
-5.00000000E+000 2.00000000E+001 0.00000000E+000
1.11550000E-001 1.30100000E+001 0.00000000E+000
1.35450000E+000 1.19640000E+001 0.00000000E+000
-1.17280000E+000 1.40530000E+001 0.00000000E+000
2.60470000E+000 1.09260000E+001 0.00000000E+000
-5.00000000E+000 1.90000000E+001 0.00000000E+000
3.81270000E+000 9.93830000E+000 0.00000000E+000
-2.45880000E+000 1.50630000E+001 0.00000000E+000
5.00000000E+000 9.00000000E+000 0.00000000E+000
-5.00000000E+000 1.80000000E+001 0.00000000E+000
-3.73700000E+000 1.60440000E+001 0.00000000E+000
1.25110000E-001 1.19530000E+001 0.00000000E+000
2.62540000E+000 9.87670000E+000 0.00000000E+000
-2.44360000E+000 1.40390000E+001 0.00000000E+000
-5.00000000E+000 1.70000000E+001 0.00000000E+000
5.00000000E+000 8.00000000E+000 0.00000000E+000
-1.14850000E+000 1.19670000E+001 0.00000000E+000
1.38310000E-001 1.08460000E+001 0.00000000E+000
-2.43280000E+000 1.30100000E+001 0.00000000E+000
1.38840000E+000 9.80800000E+000 0.00000000E+000
[...]
POINT_DATA      697
SCALARS Ux float
LOOKUP_TABLE default
1.00000000E+000
1.16433607E+000
1.00000000E+000
1.54900224E+000
1.00000000E+000
1.62856430E+000
1.31034059E+000
1.63831438E+000
2.13665344E+000
1.00000000E+000
1.99214866E+000
2.71776032E+000
1.74912803E+000
2.87363345E+000
1.00000000E+000
2.41548732E+000
3.74662381E+000
1.00000000E+000
3.18345703E+000
4.73719343E+000
1.00000000E+000
4.56566226E+000
2.62668812E+000
4.08535740E+000
5.82391988E+000
1.00000000E+000
5.57663244E+000
4.32867536E+000
6.99374468E+000
1.00000000E+000
7.14024867E+000
2.78229249E+000
7.14927793E+000
4.51255068E+000
8.21252211E+000
1.00000000E+000
7.37111853E+000
6.04434633E+000
8.44981586E+000
4.80118950E+000
7.54652894E+000
9.45893420E+000
1.00000000E+000
9.64025620E+000
3.13515347E+000
9.75771577E+000
8.77483271E+000
7.93073334E+000
5.14782524E+000
9.87222943E+000
6.83673866E+000
1.07007495E+001
1.00000000E+000
9.96418157E+000
8.37463827E+000
1.09430973E+001
1.00342836E+001
9.27460558E+000
5.97167964E+000
1.01024403E+001
1.19063655E+001
1.10784398E+001
1.00000000E+000
1.20058797E+001
9.35730871E+000
1.20876665E+001
3.98420323E+000
1.09779273E+001
1.21206413E+001
7.27661226E+000
1.21517141E+001
9.11608804E+000
1.20188840E+001
1.30446742E+001
1.04354707E+001
1.12243092E+001
1.18762378E+001
1.00000000E+000
1.31901464E+001
1.32983801E+001
1.31385353E+001
9.43895263E+000
1.40868917E+001
1.23029879E+001
1.41333472E+001
1.00000000E+000
1.42017894E+001
1.42603112E+001
1.43524713E+001
1.43439496E+001
8.95409143E+000
1.43699785E+001
1.10489576E+001
1.41783043E+001
1.50076591E+001
1.40044029E+001
1.35984558E+001
1.51276998E+001
1.33277301E+001
1.53598548E+001
1.75456335E+001
1.56370638E+001
1.57871025E+001
1.58230428E+001
1.59286461E+001
1.51248620E+001
1.59139199E+001
1.60332599E+001
1.70021648E+001
2.08792740E+001
1.62177269E+001
1.66509525E+001
1.64317668E+001
1.67318415E+001
1.70656951E+001
1.64078963E+001
1.89130953E+001
1.65510098E+001
2.33654094E+001
1.75375580E+001
1.69437960E+001
1.81141005E+001
2.14647414E+001
1.76332786E+001
1.89155074E+001
2.35901942E+001
1.68599496E+001
2.06121884E+001
2.58735122E+001
1.68994784E+001
1.70160408E+001
1.72037963E+001
1.87070988E+001
1.74785650E+001
2.04348412E+001
1.78349957E+001
2.38985077E+001
1.82971850E+001
2.80463897E+001
1.71333962E+001
2.03961975E+001
2.19181832E+001
1.88678418E+001
1.72977997E+001
2.61763126E+001
1.78037368E+001
1.95624403E+001
2.47416666E+001
2.80463962E+001
2.37044911E+001
2.99289019E+001
2.04128184E+001
1.87064472E+001
1.72257307E+001
1.72672619E+001
2.30750918E+001
1.73952895E+001
2.14092509E+001
2.82502911E+001
1.76123069E+001
2.55347771E+001
1.79260652E+001
2.00802333E+001
3.16171599E+001
1.83441966E+001
2.25645191E+001
1.88759186E+001
2.86048659E+001
3.01162449E+001
2.72881581E+001
2.38875725E+001
1.95282145E+001
3.16877714E+001
2.19818201E+001
2.62257263E+001
3.31647586E+001
2.03071300E+001
2.52896401E+001
2.90076323E+001
3.18166291E+001
2.12150375E+001
2.43868784E+001
2.67586889E+001
3.45689102E+001
2.22368925E+001
3.06581344E+001
3.20072463E+001
2.93931720E+001
3.33774894E+001
2.33880525E+001
3.46691535E+001
2.82351698E+001
3.58453414E+001
2.46091036E+001
2.71089880E+001
3.22156130E+001
3.48002215E+001
2.97013124E+001
2.59177687E+001
3.70031096E+001
3.23871588E+001
3.37343126E+001
3.11401248E+001
3.49637133E+001
2.72653414E+001
3.60929981E+001
2.99110313E+001
3.71310513E+001
2.86331550E+001
3.25274072E+001
3.80527876E+001
3.51348564E+001
3.72650498E+001
3.00004017E+001
3.38831781E+001
3.51501190E+001
3.26185275E+001
3.89980678E+001
3.65661639E+001
3.81831389E+001
3.75635872E+001
3.13412603E+001
3.90110620E+001
3.51554497E+001
3.90218738E+001
3.26426275E+001
3.98456030E+001
3.78474789E+001
3.90502993E+001
3.84762373E+001
3.51250634E+001
3.63710629E+001
3.38866159E+001
3.90770245E+001
3.97833052E+001
3.76621278E+001
4.06005072E+001
4.05396787E+001
3.88369538E+001
3.50642204E+001
3.96778837E+001
3.74785034E+001
4.04682436E+001
4.03499879E+001
4.12678735E+001
3.61630563E+001
3.73323099E+001
4.02258624E+001
3.99604465E+001
3.84326424E+001
3.96946555E+001
4.11213126E+001
3.71772029E+001
4.18536992E+001
3.94797336E+001
4.08609503E+001
4.17852689E+001
3.92723613E+001
4.16948247E+001
4.04033126E+001
3.80987266E+001
4.15614803E+001
4.23635672E+001
3.90918690E+001
4.14136581E+001
4.12079671E+001
3.99833543E+001
4.22127917E+001
3.89214352E+001
4.10000238E+001
4.07792069E+001
4.28038562E+001
4.19288830E+001
4.27482085E+001
4.05712729E+001
3.96348687E+001
4.26579603E+001
4.14977889E+001
4.03939634E+001
4.25249691E+001
4.31808101E+001
4.23637803E+001
4.02323364E+001
4.10468278E+001
4.21383244E+001
4.30455086E+001
4.18969389E+001
4.16336233E+001
4.35003600E+001
4.07211073E+001
4.27381855E+001
4.13927941E+001
4.34590370E+001
4.33720908E+001
4.11470548E+001
4.22355094E+001
4.32328650E+001
4.10461160E+001
4.37687463E+001
4.30511968E+001
4.15917106E+001
4.27968126E+001
4.36428594E+001
4.25023733E+001
4.11182660E+001
4.21478059E+001
4.39906184E+001
4.33086476E+001
4.17535860E+001
4.39552916E+001
4.12972130E+001
4.38664652E+001
4.27267106E+001
4.08531434E+001
4.37201223E+001
4.41711941E+001
4.35200205E+001
4.18920027E+001
3.98985739E+001
4.32448745E+001
4.40456498E+001
4.29099349E+001
4.07103555E+001
3.88805667E+001
4.24916671E+001
4.43136903E+001
4.36841679E+001
4.42802965E+001
4.19978315E+001
4.41868693E+001
3.78127219E+001
4.14319176E+001
4.30557845E+001
4.40306561E+001
3.89559894E+001
4.44216872E+001
4.07404556E+001
4.38122357E+001
3.66385448E+001
4.21131658E+001
4.35253541E+001
4.42941527E+001
3.99453191E+001
4.31716342E+001
3.53454366E+001
4.44970282E+001
4.27322806E+001
3.89990958E+001
4.39123680E+001
4.08160923E+001
3.66806675E+001
4.44648555E+001
4.22148423E+001
4.43685305E+001
3.39431728E+001
3.79250711E+001
4.32607696E+001
4.16009001E+001
4.42080753E+001
4.45417664E+001
4.39825919E+001
3.90713166E+001
4.09003982E+001
3.67296578E+001
3.24318626E+001
4.36883138E+001
4.22971595E+001
4.44135397E+001
3.39191592E+001
4.00746826E+001
4.33240485E+001
3.53740878E+001
4.45564413E+001
3.08101982E+001
4.40268298E+001
4.28817173E+001
3.91502137E+001
4.45247888E+001
4.09861104E+001
3.67856526E+001
4.23622141E+001
4.44292010E+001
3.38950833E+001
4.33676811E+001
3.80570902E+001
4.42693166E+001
2.90773183E+001
3.08186127E+001
4.17567888E+001
4.40435203E+001
3.24147400E+001
3.92715798E+001
4.10651360E+001
3.68455831E+001
4.37505389E+001
4.24128491E+001
2.72330934E+001
3.08282799E+001
3.37600257E+001
4.02750436E+001
4.33879854E+001
3.53137574E+001
4.29538770E+001
2.74045695E+001
3.93907844E+001
2.54108508E+001
2.92488346E+001
4.11365158E+001
3.70798892E+001
3.07392492E+001
4.24455402E+001
3.84001323E+001
3.36244501E+001
2.75786738E+001
4.18602471E+001
2.34903318E+001
3.21837137E+001
3.95096597E+001
3.06501738E+001
3.73108667E+001
4.11962742E+001
2.77146490E+001
2.59126724E+001
2.38260770E+001
2.16240801E+001
3.42022451E+001
2.92825856E+001
4.04501115E+001
3.24626282E+001
3.03396202E+001
3.60899817E+001
2.78497683E+001
3.96212434E+001
3.75112658E+001
2.41637642E+001
1.96646095E+001
3.00296901E+001
3.47642676E+001
3.06382030E+001
3.87066484E+001
2.79754455E+001
3.12383125E+001
2.63553987E+001
2.44818238E+001
2.90812876E+001
2.23460824E+001
2.00529965E+001
1.77791352E+001
3.77061880E+001
3.35249774E+001
2.81017373E+001
3.51066272E+001
3.17255273E+001
3.00593823E+001
2.47956844E+001
2.84662892E+001
3.66180642E+001
2.04499246E+001
1.57911455E+001
2.68943130E+001
2.52235708E+001
3.22047330E+001
2.88276340E+001
3.54414223E+001
2.56429524E+001
1.38651772E+001
2.31075185E+001
1.60822636E+001
1.84785494E+001
2.09120625E+001
3.09037415E+001
3.25288663E+001
2.91831183E+001
2.75393134E+001
2.59226314E+001
2.45797186E+001
3.41883808E+001
1.17783080E+001
1.64248914E+001
2.95344731E+001
2.13533759E+001
2.24331786E+001
2.61995189E+001
2.34875690E+001
3.28481260E+001
9.85006746E+000
2.49055901E+001
1.19738705E+001
2.35295639E+001
2.81534407E+001
2.64533137E+001
2.97935575E+001
1.43733718E+001
3.14885489E+001
1.67092213E+001
1.91898599E+001
2.10815462E+001
7.61010267E+000
2.35685049E+001
2.67077115E+001
3.00506254E+001
1.22563344E+001
2.22006305E+001
4.41017713E+000
1.69549867E+001
2.36923020E+001
7.52471242E+000
2.52911117E+001
2.69025684E+001
2.07932036E+001
2.86105692E+001
1.03064453E+001
-7.21644966E-016
2.38165820E+001
1.71846006E+001
1.91091530E+001
2.70957109E+001
1.23515719E+001
8.28519168E+000
2.07920615E+001
1.46105935E+001
3.96904731E-014
3.33304753E+000
2.23318414E+001
2.39211266E+001
6.33916060E+000
2.55967413E+001
1.73756913E+001
1.37112544E-014
2.07932986E+001
4.81866074E+000
8.33058035E+000
1.22645758E+001
2.40285762E+001
1.44014242E+000
1.74734912E+001
1.56787195E+001
-3.56936702E-014
3.59097854E+000
1.92103449E+001
2.08297100E+001
1.31299220E+001
1.02254853E+001
2.24854044E+001
2.69630533E+000
5.22884473E+000
1.75701280E+001
1.37112544E-014
1.39340603E+001
8.19925648E+000
2.12971804E+000
2.08777760E+001
8.56466593E-001
6.78138601E+000
3.20017818E+000
1.07575241E+001
1.59850357E+001
1.41259290E+001
1.65188829E+000
2.77555756E-015
5.32244071E+000
1.76034896E+001
1.26908619E+001
4.43200570E+000
1.93018121E+001
2.09862937E+000
3.50554800E+000
2.98584812E+000
1.45605796E+000
1.43347701E+001
2.48004734E+000
7.29422983E+000
3.71924713E-014
1.14060195E+001
1.76587560E+001
6.28597143E-001
1.01736764E+001
2.32453784E+000
3.33287900E+000
1.24606653E+000
1.28130873E+001
4.81351576E+000
1.43164385E+001
1.13115374E+001
1.71872948E+000
9.01806615E+000
1.60546890E+001
-5.99520433E-015
2.15462751E+000
2.63751018E+000
1.08968019E+000
7.49947486E+000
1.12178041E+001
3.08827443E+000
1.43680854E+001
8.65964534E+000
6.14426863E+000
3.66085801E+000
1.86173057E+000
7.77779816E+000
-4.44089210E-015
5.13927695E+000
4.52370110E-001
9.06344626E-001
9.72287338E+000
4.14681661E+000
1.10242617E+001
1.24628849E+000
2.59947766E+000
1.26837080E+001
1.55670620E+000
7.77592764E-001
8.19676353E+000
5.63909988E+000
-1.15463195E-014
6.39391582E+000
1.85938664E+000
4.87436506E+000
3.26963421E+000
1.08769728E+001
2.11346164E+000
6.33293100E-001
5.65960076E+000
1.20829346E+000
3.61596702E+000
6.48168249E+000
3.09831412E-001
5.83486234E+000
2.32140946E+000
7.60366603E-001
7.36786474E+000
4.94662060E+000
1.33226763E-014
9.13826083E+000
8.60512650E-001
2.46092835E+000
1.60182472E+000
4.25163379E+000
5.09192965E+000
3.63709305E+000
3.31305179E+000
1.00731763E+000
4.13662596E+000
2.96209990E+000
2.37931480E+000
3.63807875E+000
6.21724894E-015
7.15165553E+000
4.20895553E-001
3.59993193E+000
3.89725253E+000
2.60199213E+000
1.83223220E+000
1.10327289E+000
2.25141620E+000
3.34304775E+000
4.27546679E+000
3.14101124E+000
1.19705573E+000
1.86517468E-014
2.72484417E+000
2.88231391E+000
2.25204485E+000
2.57981179E+000
1.75132693E+000
1.23441855E+000
5.38403739E-001
1.95399252E-014
-6.21724894E-015
2.12235789E+000
1.27548725E+000
1.55316786E+000
1.98508420E+000
1.81795516E+000
1.26418775E+000
1.69618260E+000
1.41493787E+000
1.53206977E+000
-5.32907052E-015
8.88178420E-016
6.01485314E-001
1.04860302E+000
1.77635684E-014
1.06581410E-014
6.16694115E-001
8.86414712E-001
7.49479147E-001
8.88178420E-015
2.66453526E-014
1.77635684E-015
-5.32907052E-015
1.42108547E-014
8.88178420E-015
7.10542736E-015
7.10542736E-015
-7.10542736E-015
-0.00000000E+000
