# vtk DataFile Version 1.0
ECM-CELL DIFFUSION-MECHANICS
ASCII

DATASET UNSTRUCTURED_GRID
POINTS    12932 float
1.50000000E+001 3.00000000E+001 0.00000000E+000
1.48250000E+001 2.98250000E+001 0.00000000E+000
1.47500000E+001 3.00000000E+001 0.00000000E+000
1.47080000E+001 2.98790000E+001 0.00000000E+000
1.45530000E+001 2.98140000E+001 0.00000000E+000
1.46490000E+001 2.96490000E+001 0.00000000E+000
1.45000000E+001 3.00000000E+001 0.00000000E+000
1.43550000E+001 2.97330000E+001 0.00000000E+000
1.44740000E+001 2.94740000E+001 0.00000000E+000
1.42500000E+001 3.00000000E+001 0.00000000E+000
1.41420000E+001 2.96430000E+001 0.00000000E+000
1.42980000E+001 2.92980000E+001 0.00000000E+000
1.40000000E+001 3.00000000E+001 0.00000000E+000
1.39160000E+001 2.95500000E+001 0.00000000E+000
1.41230000E+001 2.91230000E+001 0.00000000E+000
1.37500000E+001 3.00000000E+001 0.00000000E+000
1.36310000E+001 2.94330000E+001 0.00000000E+000
1.39470000E+001 2.89470000E+001 0.00000000E+000
1.35000000E+001 3.00000000E+001 0.00000000E+000
1.37720000E+001 2.87720000E+001 0.00000000E+000
1.32500000E+001 3.00000000E+001 0.00000000E+000
1.35000000E+001 2.90720000E+001 0.00000000E+000
1.32840000E+001 2.95930000E+001 0.00000000E+000
1.32300000E+001 2.92620000E+001 0.00000000E+000
1.35960000E+001 2.85960000E+001 0.00000000E+000
1.30000000E+001 3.00000000E+001 0.00000000E+000
1.33690000E+001 2.88220000E+001 0.00000000E+000
1.30010000E+001 2.96710000E+001 0.00000000E+000
1.31380000E+001 2.89990000E+001 0.00000000E+000
1.29710000E+001 2.93780000E+001 0.00000000E+000
1.34210000E+001 2.84210000E+001 0.00000000E+000
1.27500000E+001 3.00000000E+001 0.00000000E+000
1.32200000E+001 2.86120000E+001 0.00000000E+000
1.29120000E+001 2.91260000E+001 0.00000000E+000
1.27500000E+001 2.97150000E+001 0.00000000E+000
1.30220000E+001 2.87800000E+001 0.00000000E+000
1.27290000E+001 2.94480000E+001 0.00000000E+000
1.28250000E+001 2.89140000E+001 0.00000000E+000
1.26940000E+001 2.92120000E+001 0.00000000E+000
1.32460000E+001 2.82460000E+001 0.00000000E+000
1.30660000E+001 2.84250000E+001 0.00000000E+000
1.25000000E+001 3.00000000E+001 0.00000000E+000
1.25030000E+001 2.97370000E+001 0.00000000E+000
1.28860000E+001 2.85890000E+001 0.00000000E+000
1.25000000E+001 2.94870000E+001 0.00000000E+000
1.26390000E+001 2.90120000E+001 0.00000000E+000
1.27120000E+001 2.87320000E+001 0.00000000E+000
1.24880000E+001 2.92610000E+001 0.00000000E+000
1.25610000E+001 2.88520000E+001 0.00000000E+000
1.24680000E+001 2.90680000E+001 0.00000000E+000
1.30700000E+001 2.80700000E+001 0.00000000E+000
1.29040000E+001 2.82470000E+001 0.00000000E+000
1.22620000E+001 2.97460000E+001 0.00000000E+000
1.22500000E+001 3.00000000E+001 0.00000000E+000
1.24510000E+001 2.89340000E+001 0.00000000E+000
1.27360000E+001 2.84140000E+001 0.00000000E+000
1.22700000E+001 2.95030000E+001 0.00000000E+000
1.25750000E+001 2.85720000E+001 0.00000000E+000
1.22760000E+001 2.92740000E+001 0.00000000E+000
1.24320000E+001 2.87260000E+001 0.00000000E+000
1.22870000E+001 2.90650000E+001 0.00000000E+000
1.23260000E+001 2.88810000E+001 0.00000000E+000
1.27360000E+001 2.80720000E+001 0.00000000E+000
1.28950000E+001 2.78950000E+001 0.00000000E+000
1.20160000E+001 2.97490000E+001 0.00000000E+000
1.25740000E+001 2.82430000E+001 0.00000000E+000
1.20000000E+001 3.00000000E+001 0.00000000E+000
1.20310000E+001 2.95040000E+001 0.00000000E+000
1.24180000E+001 2.84150000E+001 0.00000000E+000
1.20490000E+001 2.92640000E+001 0.00000000E+000
1.22630000E+001 2.85940000E+001 0.00000000E+000
1.20750000E+001 2.90280000E+001 0.00000000E+000
1.21320000E+001 2.87940000E+001 0.00000000E+000
1.25630000E+001 2.78940000E+001 0.00000000E+000
1.27190000E+001 2.77190000E+001 0.00000000E+000
1.24040000E+001 2.80680000E+001 0.00000000E+000
1.17680000E+001 2.97500000E+001 0.00000000E+000
1.17500000E+001 3.00000000E+001 0.00000000E+000
1.17850000E+001 2.95010000E+001 0.00000000E+000
1.22400000E+001 2.82450000E+001 0.00000000E+000
1.18050000E+001 2.92510000E+001 0.00000000E+000
1.20620000E+001 2.84360000E+001 0.00000000E+000
1.18230000E+001 2.89850000E+001 0.00000000E+000
1.18530000E+001 2.86690000E+001 0.00000000E+000
1.23900000E+001 2.77170000E+001 0.00000000E+000
1.25440000E+001 2.75440000E+001 0.00000000E+000
1.22320000E+001 2.78880000E+001 0.00000000E+000
1.15200000E+001 2.97490000E+001 0.00000000E+000
1.15360000E+001 2.95000000E+001 0.00000000E+000
1.15000000E+001 3.00000000E+001 0.00000000E+000
1.20650000E+001 2.80600000E+001 0.00000000E+000
1.15510000E+001 2.92500000E+001 0.00000000E+000
1.18870000E+001 2.82330000E+001 0.00000000E+000
1.15580000E+001 2.89930000E+001 0.00000000E+000
1.16910000E+001 2.83980000E+001 0.00000000E+000
1.15480000E+001 2.87310000E+001 0.00000000E+000
1.22160000E+001 2.75380000E+001 0.00000000E+000
1.23680000E+001 2.73680000E+001 0.00000000E+000
1.20590000E+001 2.77050000E+001 0.00000000E+000
1.12680000E+001 2.97500000E+001 0.00000000E+000
1.12850000E+001 2.95020000E+001 0.00000000E+000
1.12500000E+001 3.00000000E+001 0.00000000E+000
1.18920000E+001 2.78710000E+001 0.00000000E+000
1.12990000E+001 2.92530000E+001 0.00000000E+000
1.17200000E+001 2.80360000E+001 0.00000000E+000
1.13060000E+001 2.90050000E+001 0.00000000E+000
1.14750000E+001 2.84990000E+001 0.00000000E+000
1.15450000E+001 2.81900000E+001 0.00000000E+000
1.13000000E+001 2.87610000E+001 0.00000000E+000
1.21930000E+001 2.71930000E+001 0.00000000E+000
1.20380000E+001 2.73560000E+001 0.00000000E+000
1.18790000E+001 2.75210000E+001 0.00000000E+000
1.12810000E+001 2.85500000E+001 0.00000000E+000
1.10140000E+001 2.97500000E+001 0.00000000E+000
1.13780000E+001 2.83160000E+001 0.00000000E+000
1.10320000E+001 2.95030000E+001 0.00000000E+000
1.10000000E+001 3.00000000E+001 0.00000000E+000
1.17130000E+001 2.76860000E+001 0.00000000E+000
1.10480000E+001 2.92560000E+001 0.00000000E+000
1.10600000E+001 2.90090000E+001 0.00000000E+000
1.12630000E+001 2.84020000E+001 0.00000000E+000
1.15470000E+001 2.78530000E+001 0.00000000E+000
1.10730000E+001 2.87640000E+001 0.00000000E+000
1.13850000E+001 2.80150000E+001 0.00000000E+000
1.10900000E+001 2.85380000E+001 0.00000000E+000
1.12400000E+001 2.81790000E+001 0.00000000E+000
1.11370000E+001 2.83450000E+001 0.00000000E+000
1.20180000E+001 2.70180000E+001 0.00000000E+000
1.18590000E+001 2.71760000E+001 0.00000000E+000
1.16980000E+001 2.73380000E+001 0.00000000E+000
1.07610000E+001 2.97510000E+001 0.00000000E+000
1.07500000E+001 3.00000000E+001 0.00000000E+000
1.07740000E+001 2.95030000E+001 0.00000000E+000
1.15340000E+001 2.75060000E+001 0.00000000E+000
1.07930000E+001 2.92540000E+001 0.00000000E+000
1.08150000E+001 2.90030000E+001 0.00000000E+000
1.13700000E+001 2.76740000E+001 0.00000000E+000
1.08420000E+001 2.87490000E+001 0.00000000E+000
1.12140000E+001 2.78560000E+001 0.00000000E+000
1.08830000E+001 2.84990000E+001 0.00000000E+000
1.10690000E+001 2.80450000E+001 0.00000000E+000
1.09540000E+001 2.82600000E+001 0.00000000E+000
1.18420000E+001 2.68420000E+001 0.00000000E+000
1.16810000E+001 2.69990000E+001 0.00000000E+000
1.15190000E+001 2.71600000E+001 0.00000000E+000
1.05090000E+001 2.97510000E+001 0.00000000E+000
1.05000000E+001 3.00000000E+001 0.00000000E+000
1.05220000E+001 2.95020000E+001 0.00000000E+000
1.05400000E+001 2.92500000E+001 0.00000000E+000
1.13530000E+001 2.73240000E+001 0.00000000E+000
1.05680000E+001 2.89920000E+001 0.00000000E+000
1.11860000E+001 2.74980000E+001 0.00000000E+000
1.06040000E+001 2.87260000E+001 0.00000000E+000
1.10310000E+001 2.76880000E+001 0.00000000E+000
1.06600000E+001 2.84490000E+001 0.00000000E+000
1.08770000E+001 2.79120000E+001 0.00000000E+000
1.07490000E+001 2.81660000E+001 0.00000000E+000
1.16670000E+001 2.66670000E+001 0.00000000E+000
1.15040000E+001 2.68230000E+001 0.00000000E+000
1.13380000E+001 2.69820000E+001 0.00000000E+000
1.02570000E+001 2.97520000E+001 0.00000000E+000
1.02500000E+001 3.00000000E+001 0.00000000E+000
1.02680000E+001 2.95020000E+001 0.00000000E+000
1.02870000E+001 2.92480000E+001 0.00000000E+000
1.11650000E+001 2.71460000E+001 0.00000000E+000
1.03150000E+001 2.89870000E+001 0.00000000E+000
1.03570000E+001 2.87080000E+001 0.00000000E+000
1.09910000E+001 2.73230000E+001 0.00000000E+000
1.08460000E+001 2.75290000E+001 0.00000000E+000
1.04230000E+001 2.84040000E+001 0.00000000E+000
1.05200000E+001 2.80850000E+001 0.00000000E+000
1.06600000E+001 2.77490000E+001 0.00000000E+000
1.14910000E+001 2.64910000E+001 0.00000000E+000
1.13260000E+001 2.66450000E+001 0.00000000E+000
1.00000000E+001 3.00000000E+001 0.00000000E+000
1.00050000E+001 2.97540000E+001 0.00000000E+000
1.11530000E+001 2.68030000E+001 0.00000000E+000
1.00170000E+001 2.95030000E+001 0.00000000E+000
1.00360000E+001 2.92490000E+001 0.00000000E+000
1.06220000E+001 2.75360000E+001 0.00000000E+000
1.06940000E+001 2.73920000E+001 0.00000000E+000
1.00660000E+001 2.89850000E+001 0.00000000E+000
1.09680000E+001 2.69690000E+001 0.00000000E+000
1.01080000E+001 2.87040000E+001 0.00000000E+000
1.01670000E+001 2.83910000E+001 0.00000000E+000
1.07590000E+001 2.71560000E+001 0.00000000E+000
1.04200000E+001 2.77380000E+001 0.00000000E+000
1.04950000E+001 2.75230000E+001 0.00000000E+000
1.02390000E+001 2.80330000E+001 0.00000000E+000
1.05420000E+001 2.73640000E+001 0.00000000E+000
1.13160000E+001 2.63160000E+001 0.00000000E+000
1.11480000E+001 2.64670000E+001 0.00000000E+000
9.75000000E+000 3.00000000E+001 0.00000000E+000
9.75470000E+000 2.97550000E+001 0.00000000E+000
1.09740000E+001 2.66200000E+001 0.00000000E+000
9.76590000E+000 2.95060000E+001 0.00000000E+000
1.04340000E+001 2.73730000E+001 0.00000000E+000
1.03700000E+001 2.74880000E+001 0.00000000E+000
9.78180000E+000 2.92560000E+001 0.00000000E+000
1.05280000E+001 2.72030000E+001 0.00000000E+000
1.02710000E+001 2.76520000E+001 0.00000000E+000
9.80900000E+000 2.89970000E+001 0.00000000E+000
1.07940000E+001 2.67720000E+001 0.00000000E+000
9.84910000E+000 2.87260000E+001 0.00000000E+000
9.89920000E+000 2.84370000E+001 0.00000000E+000
1.01270000E+001 2.78220000E+001 0.00000000E+000
[...]
POINT_DATA    12932
SCALARS Ux float
LOOKUP_TABLE default
1.00000000E+000
1.00000000E+000
9.99983777E-001
9.99984927E-001
9.99965251E-001
1.00000000E+000
9.99914195E-001
9.99871386E-001
1.00000000E+000
9.99813418E-001
9.99775488E-001
1.00000000E+000
9.99589826E-001
9.99602134E-001
1.00000000E+000
9.99311751E-001
9.99351096E-001
1.00000000E+000
9.98916786E-001
1.00000000E+000
9.98690165E-001
9.99444101E-001
9.98795697E-001
9.98916297E-001
1.00000000E+000
9.98346933E-001
9.99471457E-001
9.98369339E-001
9.98994812E-001
9.98398805E-001
1.00000000E+000
9.97929804E-001
9.99493906E-001
9.98545857E-001
9.97946510E-001
9.99027199E-001
9.98009134E-001
9.98640532E-001
9.98101203E-001
1.00000000E+000
9.99496330E-001
9.97453920E-001
9.97487674E-001
9.99016253E-001
9.97566841E-001
9.98132705E-001
9.98564046E-001
9.97676825E-001
9.98219343E-001
9.97822111E-001
1.00000000E+000
9.99477171E-001
9.96985112E-001
9.96927497E-001
9.97872163E-001
9.98966854E-001
9.97082654E-001
9.98487671E-001
9.97225955E-001
9.98048449E-001
9.97415839E-001
9.97736425E-001
9.99445576E-001
1.00000000E+000
9.96424364E-001
9.98902805E-001
9.96353238E-001
9.96541620E-001
9.98377366E-001
9.96710418E-001
9.97820139E-001
9.96955559E-001
9.97405580E-001
9.99411507E-001
1.00000000E+000
9.98828619E-001
9.95815347E-001
9.95732872E-001
9.95943766E-001
9.98235952E-001
9.96129393E-001
9.97643609E-001
9.96373804E-001
9.96750694E-001
9.99374280E-001
1.00000000E+000
9.98749752E-001
9.95160617E-001
9.95292235E-001
9.95066218E-001
9.98111642E-001
9.95474938E-001
9.97437818E-001
9.95687036E-001
9.96674848E-001
9.95822094E-001
9.99333558E-001
1.00000000E+000
9.98669089E-001
9.94443926E-001
9.94582695E-001
9.94350866E-001
9.97982681E-001
9.94764748E-001
9.97285606E-001
9.94967159E-001
9.96025854E-001
9.96612539E-001
9.95195772E-001
1.00000000E+000
9.99290851E-001
9.98573061E-001
9.95403711E-001
9.93668407E-001
9.96221063E-001
9.93814192E-001
9.93585329E-001
9.97843665E-001
9.94002126E-001
9.94231622E-001
9.95329471E-001
9.97110571E-001
9.94510955E-001
9.96430699E-001
9.94820327E-001
9.95726996E-001
9.95395134E-001
1.00000000E+000
9.99246316E-001
9.98480349E-001
9.92844264E-001
9.92770513E-001
9.92975152E-001
9.97697645E-001
9.93177890E-001
9.93446095E-001
9.96921739E-001
9.93803752E-001
9.96156715E-001
9.94246925E-001
9.95465791E-001
9.94825562E-001
1.00000000E+000
9.99199226E-001
9.98385439E-001
9.91975215E-001
9.91907720E-001
9.92105997E-001
9.92306606E-001
9.97548459E-001
9.92606003E-001
9.96705225E-001
9.93009074E-001
9.95897972E-001
9.93704273E-001
9.95022767E-001
9.94128339E-001
1.00000000E+000
9.99151475E-001
9.98281171E-001
9.91057806E-001
9.90999307E-001
9.91182099E-001
9.91384267E-001
9.97378244E-001
9.91676413E-001
9.92141456E-001
9.96422937E-001
9.95617073E-001
9.92746773E-001
9.93609886E-001
9.94574067E-001
1.00000000E+000
9.99102644E-001
9.90044363E-001
9.90095404E-001
9.98166796E-001
9.90222478E-001
9.90420696E-001
9.94781999E-001
9.95329464E-001
9.90720415E-001
9.97167532E-001
9.91101495E-001
9.91948950E-001
9.96045341E-001
9.93812735E-001
9.94434593E-001
9.92430984E-001
9.94875188E-001
1.00000000E+000
9.99051819E-001
9.89043454E-001
9.89094793E-001
9.98074774E-001
9.89215052E-001
9.94485504E-001
9.94271599E-001
9.89399795E-001
9.95177837E-001
9.93348890E-001
9.89671795E-001
9.97075934E-001
9.90047279E-001
9.90227590E-001
9.92483060E-001
9.94514669E-001
9.96000146E-001
9.91204793E-001
9.93653626E-001
9.93155985E-001
9.92535830E-001
9.95158033E-001
1.00000000E+000
9.99004101E-001
9.91708270E-001
9.88055290E-001
9.87998021E-001
9.88164213E-001
9.97997631E-001
9.88366729E-001
9.94277263E-001
9.88626275E-001
9.88957491E-001
9.96953571E-001
9.93429241E-001
9.89363560E-001
9.91929372E-001
9.92531736E-001
9.95940928E-001
9.89817992E-001
9.94983123E-001
9.90147676E-001
1.00000000E+000
9.94032288E-001
9.98965543E-001
9.86959178E-001
9.86907196E-001
9.87086960E-001
9.87291580E-001
9.97915565E-001
9.87549853E-001
9.93025237E-001
9.87882976E-001
9.96828241E-001
9.88272475E-001
9.90907064E-001
9.88698919E-001
9.95770933E-001
9.91825732E-001
9.94744463E-001
9.89091799E-001
9.93755028E-001
1.00000000E+000
9.92737902E-001
9.98924974E-001
9.85833627E-001
9.85772201E-001
9.85955295E-001
9.86160876E-001
9.86446127E-001
9.97809030E-001
9.90625327E-001
9.86785753E-001
9.87177127E-001
9.89397219E-001
9.91731039E-001
9.96652132E-001
9.91074721E-001
9.87556583E-001
9.95500287E-001
9.91146126E-001
9.94436389E-001
9.93383686E-001
9.87891751E-001
9.89747161E-001
9.92369781E-001
1.00000000E+000
9.91462202E-001
9.98862740E-001
9.84664394E-001
9.90033301E-001
9.84787480E-001
9.84999245E-001
9.84593892E-001
9.85286619E-001
9.88180633E-001
9.90781962E-001
9.85630724E-001
9.97684682E-001
9.86017244E-001
9.96436964E-001
9.86395918E-001
9.95117176E-001
9.94021901E-001
9.92929905E-001
9.86734750E-001
9.88201589E-001
9.91916238E-001
9.91037039E-001
1.00000000E+000
9.90263815E-001
9.87007071E-001
9.98811540E-001
9.83473307E-001
9.83606533E-001
9.83802281E-001
9.84088046E-001
9.83372166E-001
9.84440839E-001
9.84834824E-001
9.89079676E-001
9.97562170E-001
9.85208265E-001
9.87304650E-001
9.96221371E-001
9.92408352E-001
9.85531403E-001
9.93525184E-001
9.91342395E-001
9.90468811E-001
9.89926065E-001
9.94640536E-001
9.85848486E-001
1.00000000E+000
9.87302513E-001
9.82368649E-001
9.98758674E-001
9.82579693E-001
9.82224469E-001
9.82857937E-001
9.83198242E-001
9.82112491E-001
9.83585921E-001
9.86136596E-001
9.97468812E-001
9.83958788E-001
9.88574280E-001
9.93843655E-001
9.92890887E-001
9.91859682E-001
9.96125086E-001
9.90831165E-001
9.89671505E-001
9.84288818E-001
9.86518640E-001
9.94738472E-001
9.84594588E-001
1.00000000E+000
9.87125806E-001
9.81080085E-001
9.98710947E-001
9.81282341E-001
9.80932263E-001
9.81559545E-001
9.81902922E-001
9.93700364E-001
9.80817757E-001
9.84954847E-001
9.82248343E-001
9.92545609E-001
9.97391731E-001
9.82601380E-001
9.91391358E-001
9.85574472E-001
9.90229333E-001
9.96025504E-001
9.82926850E-001
9.89047769E-001
9.87740681E-001
9.94688876E-001
9.83219309E-001
9.86613561E-001
1.00000000E+000
9.93439026E-001
9.85882594E-001
9.79735716E-001
9.79938159E-001
9.98660802E-001
9.79585789E-001
9.80212084E-001
9.80540456E-001
9.79489749E-001
9.83545105E-001
9.80894089E-001
9.92201619E-001
9.97298461E-001
9.81224192E-001
9.90952557E-001
9.89702794E-001
9.84062617E-001
9.95913184E-001
9.81500999E-001
9.88392617E-001
9.94543815E-001
9.86991010E-001
9.84661426E-001
9.81764755E-001
1.00000000E+000
9.85579876E-001
9.93194735E-001
9.78372216E-001
9.78571804E-001
9.98622264E-001
9.78219084E-001
9.78830664E-001
9.78126560E-001
9.91864432E-001
9.79132537E-001
9.82040393E-001
9.79450824E-001
9.90559658E-001
9.97217816E-001
9.79752387E-001
9.89213491E-001
9.95803606E-001
9.82458787E-001
9.80005323E-001
9.87776070E-001
9.94401716E-001
9.86131677E-001
9.82732313E-001
1.00000000E+000
9.80241938E-001
9.92987359E-001
9.98582330E-001
9.91596883E-001
9.76963796E-001
9.77161151E-001
9.76809315E-001
9.77405333E-001
9.76730785E-001
9.77678771E-001
9.84330277E-001
9.80495570E-001
9.90201805E-001
9.77961225E-001
9.97150716E-001
9.78227675E-001
9.88762598E-001
9.95717333E-001
9.80856139E-001
9.87215987E-001
9.78447362E-001
9.94265569E-001
9.92821653E-001
1.00000000E+000
9.78674598E-001
9.85537528E-001
9.81427477E-001
9.91352655E-001
9.98550552E-001
9.75724615E-001
9.75531911E-001
9.75388923E-001
9.75946304E-001
9.75304853E-001
9.76175905E-001
9.89874011E-001
9.81852047E-001
9.97104719E-001
9.78925050E-001
9.76424816E-001
9.83566511E-001
9.88306227E-001
9.95648408E-001
9.76646061E-001
9.94173556E-001
9.79239396E-001
9.86655458E-001
9.76859369E-001
9.92661220E-001
1.00000000E+000
9.80446639E-001
9.91121360E-001
9.81938563E-001
9.77064153E-001
9.84902039E-001
9.98533904E-001
9.74084898E-001
9.74262394E-001
9.73951798E-001
9.79735947E-001
9.74451989E-001
9.73847966E-001
9.89513644E-001
9.74654083E-001
9.97057343E-001
9.77310980E-001
9.74856245E-001
9.83168277E-001
9.95573638E-001
9.87824309E-001
9.80617389E-001
9.94057573E-001
9.75045860E-001
9.77592317E-001
9.92503782E-001
9.86063790E-001
9.75238053E-001
9.81561724E-001
1.00000000E+000
9.90898308E-001
9.79312151E-001
9.75432920E-001
9.98484529E-001
9.84288541E-001
9.77833882E-001
9.72602030E-001
9.72481850E-001
9.72759117E-001
9.72363917E-001
9.72923826E-001
9.96973928E-001
9.89177501E-001
9.73088131E-001
9.80263548E-001
9.95450459E-001
9.75669082E-001
9.82589801E-001
9.73244505E-001
9.93922219E-001
9.87353659E-001
9.77959049E-001
9.73389920E-001
9.78946826E-001
9.75930857E-001
9.92361591E-001
9.80942514E-001
9.73584074E-001
9.78190063E-001
9.85417826E-001
9.90729460E-001
1.00000000E+000
9.76220140E-001
9.98398392E-001
9.73802614E-001
9.96813994E-001
9.79472054E-001
9.71086993E-001
9.70974682E-001
9.71223672E-001
9.83622169E-001
9.95273697E-001
9.70852788E-001
9.71360097E-001
9.76635255E-001
9.88940920E-001
9.74047327E-001
9.93776311E-001
9.71473750E-001
9.78300154E-001
9.77309180E-001
9.81862886E-001
9.71598560E-001
9.92203962E-001
9.74290918E-001
9.71733224E-001
9.86900374E-001
9.80129081E-001
9.90637201E-001
9.74632346E-001
9.71942741E-001
1.00000000E+000
9.98258809E-001
9.95004386E-001
9.96539436E-001
9.72175858E-001
9.75200400E-001
9.93680704E-001
9.78465583E-001
9.84625922E-001
9.69415511E-001
9.69512083E-001
9.69615733E-001
9.69318728E-001
9.76114517E-001
9.77205144E-001
9.72427275E-001
9.69731705E-001
9.88871654E-001
9.92066482E-001
9.82840665E-001
9.69815670E-001
9.72688401E-001
9.69913570E-001
9.80967694E-001
9.90756343E-001
9.93538100E-001
9.73030785E-001
9.70043960E-001
9.94625152E-001
9.79130500E-001
9.70267992E-001
9.96069260E-001
1.00000000E+000
9.86434130E-001
9.98055653E-001
9.73538930E-001
9.70582623E-001
9.74581346E-001
9.92129169E-001
9.90881761E-001
9.70863166E-001
9.67840383E-001
9.67920399E-001
9.77126804E-001
9.67766425E-001
9.89079293E-001
9.75754137E-001
9.67982993E-001
9.68048333E-001
9.71118652E-001
9.68088272E-001
9.93697182E-001
9.81690843E-001
9.71418023E-001
9.83966224E-001
9.68163846E-001
9.79817865E-001
9.89788369E-001
9.68299372E-001
9.71848512E-001
1.00000000E+000
9.68525417E-001
9.97804429E-001
9.95365962E-001
9.78239602E-001
9.69377914E-001
9.69023100E-001
9.91093888E-001
9.72047096E-001
9.69586053E-001
9.66200403E-001
9.66231097E-001
9.66276390E-001
9.92715020E-001
9.86575765E-001
9.66307760E-001
9.66328349E-001
9.69811930E-001
9.73992907E-001
9.94078866E-001
9.66340338E-001
9.82041883E-001
9.75522827E-001
9.66401476E-001
9.68328186E-001
9.80153524E-001
9.88527875E-001
9.77654099E-001
9.70053369E-001
9.78835838E-001
9.66530472E-001
9.83651906E-001
1.00000000E+000
9.97768248E-001
9.90260631E-001
9.67983987E-001
9.66763507E-001
9.95516694E-001
9.92035413E-001
9.67099528E-001
9.93855841E-001
9.70431637E-001
9.64620599E-001
9.64619598E-001
9.64625419E-001
9.68243367E-001
9.64620303E-001
9.81707601E-001
9.64596620E-001
9.75471866E-001
9.64594635E-001
9.68360544E-001
9.66893565E-001
9.64618688E-001
9.85184759E-001
9.70571982E-001
9.79663539E-001
9.87433079E-001
1.00000000E+000
9.64720394E-001
9.97684877E-001
9.89387183E-001
9.95441290E-001
9.91388265E-001
9.93383318E-001
9.68457325E-001
9.72478848E-001
9.64876986E-001
9.66607372E-001
9.83176075E-001
9.63027684E-001
9.63020190E-001
9.76710501E-001
9.62993056E-001
9.65028557E-001
9.62953384E-001
9.66596066E-001
9.62880429E-001
9.81643606E-001
9.68514408E-001
9.73608112E-001
9.64942943E-001
9.62865525E-001
9.62848132E-001
1.00000000E+000
9.66546555E-001
9.97556712E-001
9.62930848E-001
9.95194233E-001
9.64883147E-001
9.92906399E-001
9.88494741E-001
9.90680227E-001
9.86304120E-001
9.69350423E-001
9.84131097E-001
9.79047986E-001
9.63018693E-001
9.67190115E-001
9.61423586E-001
9.61410071E-001
9.82070719E-001
9.61382307E-001
9.73786929E-001
9.70571142E-001
9.63095579E-001
9.66233176E-001
9.80394691E-001
9.61306656E-001
9.64784799E-001
9.61220285E-001
9.70946714E-001
9.63093057E-001
9.75917532E-001
9.61173561E-001
9.64700497E-001
9.66547966E-001
9.61123484E-001
1.00000000E+000
9.97388065E-001
9.63046160E-001
9.61173402E-001
9.94852710E-001
9.92366395E-001
9.72337121E-001
9.89934114E-001
9.87604040E-001
9.66939768E-001
9.85253192E-001
9.61209316E-001
9.64641409E-001
9.59811499E-001
9.59792408E-001
9.82961768E-001
9.59764379E-001
9.73697016E-001
9.62966493E-001
9.78285597E-001
9.80654213E-001
9.61263169E-001
9.59681734E-001
9.59603982E-001
9.69998521E-001
9.70859197E-001
9.61274648E-001
9.64722771E-001
9.67579743E-001
9.59522993E-001
9.62883854E-001
9.71636865E-001
9.59454551E-001
1.00000000E+000
9.61216466E-001
9.75519221E-001
9.97229999E-001
9.59464238E-001
9.94502495E-001
9.64960747E-001
9.91846922E-001
9.62810860E-001
9.89230279E-001
9.59483434E-001
9.86716145E-001
9.58193551E-001
9.69629141E-001
9.58173938E-001
9.61134520E-001
9.84217271E-001
9.58150416E-001
9.59492505E-001
9.58100169E-001
9.81797712E-001
9.73106865E-001
9.68449969E-001
9.62824858E-001
9.57990557E-001
9.79423547E-001
9.59484899E-001
9.65158486E-001
9.61017704E-001
9.57911172E-001
9.66922748E-001
9.76810663E-001
9.57830190E-001
9.59430200E-001
9.71119473E-001
1.00000000E+000
9.62888561E-001
9.97056672E-001
9.57782629E-001
9.60913965E-001
9.94179619E-001
9.91315824E-001
9.57768332E-001
9.69536313E-001
9.88513156E-001
9.59317772E-001
9.74277998E-001
9.56575187E-001
9.85773040E-001
9.56559557E-001
9.56550704E-001
9.64824006E-001
9.57762263E-001
9.56503071E-001
9.83125130E-001
9.60864038E-001
9.67392214E-001
9.62700916E-001
9.56408880E-001
9.80540949E-001
9.57747010E-001
9.59167292E-001
9.71894472E-001
9.56303188E-001
9.65596105E-001
9.78007226E-001
9.56229565E-001
9.57697183E-001
9.60838444E-001
1.00000000E+000
9.59013284E-001
9.56178500E-001
9.63510301E-001
9.96868253E-001
9.69793358E-001
9.75422411E-001
9.64098591E-001
9.93802955E-001
9.57594177E-001
9.56124705E-001
9.90745150E-001
9.87760843E-001
9.67890938E-001
9.54963988E-001
9.54965138E-001
9.56098844E-001
9.54948193E-001
9.63148589E-001
9.84788734E-001
9.60858008E-001
9.58883893E-001
9.72917286E-001
9.54906001E-001
9.57411004E-001
9.81965146E-001
9.56077665E-001
9.54837649E-001
9.66075165E-001
9.54744890E-001
9.79211532E-001
9.64219171E-001
9.56049025E-001
9.70487975E-001
9.54651282E-001
9.58842698E-001
9.61152555E-001
9.57085769E-001
9.76533212E-001
9.62673679E-001
9.54568061E-001
1.00000000E+000
9.55957629E-001
9.61735828E-001
9.96676357E-001
9.93413361E-001
9.54518036E-001
9.68276240E-001
9.90151020E-001
9.73939151E-001
9.54495194E-001
9.86927863E-001
9.53363430E-001
9.53359336E-001
9.55783649E-001
9.58733968E-001
9.53360381E-001
9.54472776E-001
9.66209657E-001
9.53329822E-001
9.83765331E-001
9.56768260E-001
9.53276578E-001
9.71386650E-001
9.80696527E-001
9.64396014E-001
9.54450830E-001
9.53193768E-001
9.62608569E-001
9.53062484E-001
9.77739478E-001
9.54400990E-001
9.55274941E-001
9.56722873E-001
9.68949204E-001
9.52981864E-001
9.61023865E-001
1.00000000E+000
9.59515021E-001
9.52937379E-001
9.96489141E-001
9.58210739E-001
9.74949020E-001
9.92967782E-001
9.54240799E-001
9.52923650E-001
9.66650738E-001
9.89442765E-001
9.56672978E-001
9.52919803E-001
9.85958214E-001
9.72277983E-001
9.51775690E-001
9.51764454E-001
9.51782724E-001
9.51751421E-001
9.52911365E-001
9.64521502E-001
9.82588974E-001
9.51700669E-001
9.54031676E-001
9.52873063E-001
9.51610239E-001
9.69709651E-001
9.62571893E-001
9.79342744E-001
9.53991682E-001
9.51498845E-001
9.52812006E-001
9.60781157E-001
9.51406543E-001
9.55922977E-001
9.76171953E-001
9.52537727E-001
9.54654973E-001
9.67239584E-001
9.51353260E-001
9.59137106E-001
1.00000000E+000
9.96221831E-001
9.51349173E-001
9.92397379E-001
9.57695001E-001
9.73274768E-001
9.51369165E-001
9.88593879E-001
9.54230646E-001
9.52499963E-001
9.64859816E-001
9.51356334E-001
9.56204477E-001
9.84894089E-001
9.50211836E-001
9.50217158E-001
9.50180885E-001
9.51310570E-001
9.50178726E-001
9.70472518E-001
9.54598365E-001
9.50120753E-001
9.51552699E-001
9.81282091E-001
9.62673216E-001
9.51303880E-001
9.50026392E-001
9.67879133E-001
9.49918677E-001
9.60671636E-001
9.77815811E-001
9.54242929E-001
9.49827241E-001
9.58808720E-001
9.49760303E-001
9.74551040E-001
9.65347403E-001
9.49751884E-001
1.00000000E+000
9.95870356E-001
9.51786985E-001
9.51585963E-001
9.49782729E-001
9.57029222E-001
9.91711832E-001
9.49751277E-001
9.87640505E-001
9.52519514E-001
9.71400075E-001
9.62979552E-001
9.55558326E-001
9.49706762E-001
9.50208337E-001
9.83698601E-001
9.54465742E-001
9.48667570E-001
9.48654115E-001
9.49723322E-001
9.48611005E-001
9.49907061E-001
9.48626913E-001
9.52428594E-001
9.48552600E-001
9.68588979E-001
9.60770431E-001
9.79865549E-001
9.48462394E-001
9.48350483E-001
9.58734776E-001
9.52882994E-001
9.76224999E-001
9.65894425E-001
9.48241080E-001
9.48167727E-001
9.56779269E-001
9.48162857E-001
9.72831076E-001
9.48172185E-001
9.63361102E-001
1.00000000E+000
9.95455938E-001
9.48125482E-001
9.90958478E-001
9.53097079E-001
9.49706567E-001
9.54820942E-001
9.51320686E-001
9.86553474E-001
9.48028725E-001
9.69541939E-001
9.60973318E-001
9.48833181E-001
9.50323550E-001
9.47131299E-001
9.47970323E-001
9.82314362E-001
9.47111244E-001
9.47102361E-001
9.47061941E-001
9.50066889E-001
9.47013920E-001
9.47942447E-001
9.58780085E-001
9.66631788E-001
9.52639968E-001
9.78267398E-001
9.46905886E-001
9.51359553E-001
9.48064672E-001
9.46773995E-001
9.50170055E-001
9.56719023E-001
9.63924539E-001
9.74478295E-001
9.46644908E-001
9.46557190E-001
9.46533806E-001
9.54737117E-001
9.46513961E-001
9.70892497E-001
9.61311412E-001
1.00000000E+000
9.49331847E-001
9.94983913E-001
9.46413212E-001
9.90040638E-001
9.58942724E-001
9.67608983E-001
9.46259046E-001
9.85251639E-001
9.52731187E-001
9.47354445E-001
9.47369195E-001
9.50211880E-001
9.45630173E-001
9.45603518E-001
9.47233530E-001
9.46666797E-001
9.45592955E-001
9.80677956E-001
9.46096587E-001
9.45534394E-001
9.48602328E-001
9.45488878E-001
9.56693141E-001
9.48329354E-001
9.64630409E-001
9.45353682E-001
9.76375482E-001
9.45870715E-001
9.45207724E-001
9.61854750E-001
9.50537082E-001
9.54581211E-001
9.72426925E-001
9.45069670E-001
9.45477294E-001
9.44958803E-001
9.59273083E-001
9.44886579E-001
9.68835544E-001
9.52592022E-001
9.44848370E-001
9.48296428E-001
1.00000000E+000
9.94409592E-001
9.44725747E-001
9.56841502E-001
9.65568076E-001
9.88899458E-001
9.45149464E-001
9.44502788E-001
9.48528533E-001
9.50612061E-001
9.83629968E-001
9.45090482E-001
9.44151960E-001
9.44130625E-001
9.44112667E-001
9.62531607E-001
9.45153141E-001
9.54496168E-001
9.44030110E-001
9.78632398E-001
9.43982975E-001
9.44199185E-001
9.45272203E-001
9.43812800E-001
9.44942108E-001
9.74096817E-001
9.59726914E-001
9.52343513E-001
9.43638143E-001
9.46111270E-001
9.48606266E-001
9.43805251E-001
9.70083500E-001
9.43479185E-001
9.57147330E-001
9.66471125E-001
9.43339100E-001
9.46404316E-001
9.43243835E-001
9.50325112E-001
9.43403893E-001
9.43183495E-001
1.00000000E+000
9.63230366E-001
9.54684356E-001
9.43048714E-001
9.93686056E-001
9.46581381E-001
9.60305882E-001
9.43060873E-001
9.87415208E-001
9.42772606E-001
9.48429476E-001
9.42703724E-001
9.52276942E-001
9.42652594E-001
9.42667498E-001
9.81445068E-001
9.42906234E-001
9.42556142E-001
9.57569440E-001
9.42499136E-001
9.75962619E-001
9.42353856E-001
9.42834018E-001
9.44127623E-001
9.42283130E-001
9.71203034E-001
9.42917629E-001
9.50070517E-001
9.54989551E-001
9.46503971E-001
9.43025442E-001
9.67142114E-001
9.42093164E-001
9.45101477E-001
9.63660919E-001
9.41867061E-001
9.41905580E-001
9.42762140E-001
9.52499823E-001
9.41757866E-001
9.60571254E-001
9.47974808E-001
9.41635206E-001
9.41574847E-001
1.00000000E+000
9.57821322E-001
9.41420627E-001
9.41365744E-001
9.44569934E-001
9.92680043E-001
9.50071922E-001
9.55329669E-001
9.46080848E-001
9.41083728E-001
9.85347227E-001
9.41251426E-001
9.42008106E-001
9.41208824E-001
9.40914245E-001
9.41174470E-001
9.42013736E-001
9.52823264E-001
9.41115355E-001
9.41020315E-001
9.78299349E-001
9.47737488E-001
9.40578006E-001
9.44245706E-001
9.72013685E-001
9.40533156E-001
9.40772257E-001
9.42206382E-001
9.67248321E-001
9.63370959E-001
9.40845323E-001
9.60219706E-001
9.50301928E-001
9.40504336E-001
9.40543667E-001