# vtk DataFile Version 1.0
ECM-CELL DIFFUSION-MECHANICS
ASCII

DATASET UNSTRUCTURED_GRID
POINTS      172 float
1.50000000E+001 3.00000000E+001 0.00000000E+000
1.33330000E+001 2.83330000E+001 0.00000000E+000
1.25000000E+001 3.00000000E+001 0.00000000E+000
1.08330000E+001 2.83330000E+001 0.00000000E+000
1.16670000E+001 2.66670000E+001 0.00000000E+000
1.00000000E+001 3.00000000E+001 0.00000000E+000
8.33330000E+000 2.83330000E+001 0.00000000E+000
1.00000000E+001 2.50000000E+001 0.00000000E+000
7.50000000E+000 3.00000000E+001 0.00000000E+000
6.66670000E+000 2.66670000E+001 0.00000000E+000
8.33330000E+000 2.33330000E+001 0.00000000E+000
5.00000000E+000 3.00000000E+001 0.00000000E+000
5.96910000E+000 2.40310000E+001 0.00000000E+000
4.30240000E+000 2.73640000E+001 0.00000000E+000
6.66670000E+000 2.16670000E+001 0.00000000E+000
2.50000000E+000 3.00000000E+001 0.00000000E+000
3.60480000E+000 2.47290000E+001 0.00000000E+000
4.30240000E+000 2.23640000E+001 0.00000000E+000
1.80240000E+000 2.73640000E+001 0.00000000E+000
5.00000000E+000 2.00000000E+001 0.00000000E+000
1.18110000E+000 2.53330000E+001 0.00000000E+000
1.71470000E+000 2.33660000E+001 0.00000000E+000
0.00000000E+000 3.00000000E+001 0.00000000E+000
2.41230000E+000 2.10020000E+001 0.00000000E+000
-6.21280000E-001 2.79680000E+001 0.00000000E+000
5.00000000E+000 1.75000000E+001 0.00000000E+000
-1.24260000E+000 2.59370000E+001 0.00000000E+000
2.62680000E+000 1.86380000E+001 0.00000000E+000
-7.09010000E-001 2.39700000E+001 0.00000000E+000
-1.75470000E-001 2.20030000E+001 0.00000000E+000
-2.50000000E+000 3.00000000E+001 0.00000000E+000
5.00000000E+000 1.50000000E+001 0.00000000E+000
3.90260000E-002 1.96390000E+001 0.00000000E+000
-3.12130000E+000 2.79680000E+001 0.00000000E+000
2.62680000E+000 1.61380000E+001 0.00000000E+000
-3.12130000E+000 2.54680000E+001 0.00000000E+000
-2.58770000E+000 2.35020000E+001 0.00000000E+000
2.53520000E-001 1.72760000E+001 0.00000000E+000
-2.58770000E+000 2.10020000E+001 0.00000000E+000
-5.00000000E+000 3.00000000E+001 0.00000000E+000
5.00000000E+000 1.25000000E+001 0.00000000E+000
-5.00000000E+000 2.75000000E+001 0.00000000E+000
2.54450000E+000 1.36880000E+001 0.00000000E+000
-5.00000000E+000 2.50000000E+001 0.00000000E+000
-2.37320000E+000 1.86380000E+001 0.00000000E+000
1.71280000E-001 1.48260000E+001 0.00000000E+000
-5.00000000E+000 2.25000000E+001 0.00000000E+000
-2.37320000E+000 1.61380000E+001 0.00000000E+000
5.00000000E+000 1.00000000E+001 0.00000000E+000
-5.00000000E+000 2.00000000E+001 0.00000000E+000
2.54450000E+000 1.11880000E+001 0.00000000E+000
8.90420000E-002 1.23760000E+001 0.00000000E+000
-5.00000000E+000 1.75000000E+001 0.00000000E+000
-2.45550000E+000 1.36880000E+001 0.00000000E+000
5.00000000E+000 7.50000000E+000 0.00000000E+000
2.64040000E+000 8.49120000E+000 0.00000000E+000
-5.00000000E+000 1.50000000E+001 0.00000000E+000
1.84890000E-001 9.67940000E+000 0.00000000E+000
-2.45550000E+000 1.11880000E+001 0.00000000E+000
-5.00000000E+000 1.25000000E+001 0.00000000E+000
5.00000000E+000 5.00000000E+000 0.00000000E+000
2.64040000E+000 5.99120000E+000 0.00000000E+000
2.80730000E-001 6.98240000E+000 0.00000000E+000
-2.35960000E+000 8.49120000E+000 0.00000000E+000
-5.00000000E+000 1.00000000E+001 0.00000000E+000
5.00000000E+000 2.50000000E+000 0.00000000E+000
-2.35960000E+000 5.99120000E+000 0.00000000E+000
2.49390000E+000 2.62120000E+000 0.00000000E+000
-5.00000000E+000 7.50000000E+000 0.00000000E+000
1.34250000E-001 3.61240000E+000 0.00000000E+000
5.00000000E+000 1.77640000E-015 0.00000000E+000
-5.00000000E+000 5.00000000E+000 0.00000000E+000
2.49390000E+000 1.21240000E-001 0.00000000E+000
-2.50610000E+000 2.62120000E+000 0.00000000E+000
-1.22320000E-002 2.42480000E-001 0.00000000E+000
5.00000000E+000 -2.50000000E+000 0.00000000E+000
-5.00000000E+000 2.50000000E+000 0.00000000E+000
-2.50610000E+000 1.21240000E-001 0.00000000E+000
2.49390000E+000 -2.37880000E+000 0.00000000E+000
-5.00000000E+000 0.00000000E+000 0.00000000E+000
-1.02690000E+000 -2.30270000E+000 0.00000000E+000
5.00000000E+000 -5.00000000E+000 0.00000000E+000
-3.52080000E+000 -2.42400000E+000 0.00000000E+000
-7.28820000E+000 0.00000000E+000 0.00000000E+000
1.47920000E+000 -4.92400000E+000 0.00000000E+000
-6.14410000E+000 -2.16510000E+000 0.00000000E+000
-9.57650000E+000 0.00000000E+000 0.00000000E+000
-2.04160000E+000 -4.84790000E+000 0.00000000E+000
5.00000000E+000 -7.50000000E+000 0.00000000E+000
2.50850000E+000 -7.50000000E+000 0.00000000E+000
-4.66490000E+000 -4.58900000E+000 0.00000000E+000
-8.43230000E+000 -2.16510000E+000 0.00000000E+000
-1.18650000E+001 0.00000000E+000 0.00000000E+000
-1.01230000E+000 -7.42400000E+000 0.00000000E+000
-7.28820000E+000 -4.33010000E+000 0.00000000E+000
-1.07210000E+001 -2.16510000E+000 0.00000000E+000
5.00000000E+000 -1.00000000E+001 0.00000000E+000
-3.50380000E+000 -7.42400000E+000 0.00000000E+000
-1.41530000E+001 0.00000000E+000 0.00000000E+000
2.50850000E+000 -1.00000000E+001 0.00000000E+000
-9.57650000E+000 -4.33010000E+000 0.00000000E+000
-1.30090000E+001 -2.16510000E+000 0.00000000E+000
1.69830000E-002 -1.00000000E+001 0.00000000E+000
-6.12710000E+000 -7.16510000E+000 0.00000000E+000
-1.63880000E+001 0.00000000E+000 0.00000000E+000
-1.18650000E+001 -4.33010000E+000 0.00000000E+000
-2.47450000E+000 -1.00000000E+001 0.00000000E+000
-8.61860000E+000 -7.16510000E+000 0.00000000E+000
-1.53530000E+001 -2.08460000E+000 0.00000000E+000
-4.96600000E+000 -1.00000000E+001 0.00000000E+000
-1.42080000E+001 -4.24970000E+000 0.00000000E+000
-1.86240000E+001 0.00000000E+000 0.00000000E+000
-1.09070000E+001 -7.16510000E+000 0.00000000E+000
-1.75880000E+001 -2.08460000E+000 0.00000000E+000
-7.45750000E+000 -1.00000000E+001 0.00000000E+000
-2.04210000E+001 0.00000000E+000 0.00000000E+000
-1.65520000E+001 -4.16920000E+000 0.00000000E+000
-1.32500000E+001 -7.16510000E+000 0.00000000E+000
-1.95230000E+001 -1.86650000E+000 0.00000000E+000
-9.94900000E+000 -1.00000000E+001 0.00000000E+000
-1.84870000E+001 -3.95110000E+000 0.00000000E+000
-2.22180000E+001 0.00000000E+000 0.00000000E+000
-1.55940000E+001 -7.08460000E+000 0.00000000E+000
-2.13200000E+001 -1.86650000E+000 0.00000000E+000
-1.22930000E+001 -1.00000000E+001 0.00000000E+000
-1.80840000E+001 -5.56080000E+000 0.00000000E+000
-2.36090000E+001 0.00000000E+000 0.00000000E+000
-2.04210000E+001 -3.73300000E+000 0.00000000E+000
-2.00180000E+001 -5.34270000E+000 0.00000000E+000
-1.46360000E+001 -1.00000000E+001 0.00000000E+000
-2.50000000E+001 0.00000000E+000 0.00000000E+000
-2.38930000E+001 -1.58940000E+000 0.00000000E+000
-1.71250000E+001 -8.47620000E+000 0.00000000E+000
-2.29950000E+001 -3.45590000E+000 0.00000000E+000
-1.96150000E+001 -6.95240000E+000 0.00000000E+000
-1.66610000E+001 -1.00000000E+001 0.00000000E+000
-2.62940000E+001 -1.70370000E-001 0.00000000E+000
-2.19910000E+001 -5.37280000E+000 0.00000000E+000
-2.52840000E+001 -1.58940000E+000 0.00000000E+000
-1.91500000E+001 -8.47620000E+000 0.00000000E+000
-2.15880000E+001 -6.98250000E+000 0.00000000E+000
-1.86850000E+001 -1.00000000E+001 0.00000000E+000
-2.65340000E+001 -1.92430000E+000 0.00000000E+000
-2.55680000E+001 -3.17870000E+000 0.00000000E+000
-2.75000000E+001 -6.69870000E-001 0.00000000E+000
-2.08690000E+001 -8.47620000E+000 0.00000000E+000
-2.45650000E+001 -5.09570000E+000 0.00000000E+000
-2.04040000E+001 -1.00000000E+001 0.00000000E+000
-2.35620000E+001 -7.01270000E+000 0.00000000E+000
-2.74490000E+001 -2.83940000E+000 0.00000000E+000
-2.85360000E+001 -1.46450000E+000 0.00000000E+000
-2.60410000E+001 -4.84660000E+000 0.00000000E+000
-2.28430000E+001 -8.50640000E+000 0.00000000E+000
-2.50380000E+001 -6.76360000E+000 0.00000000E+000
-2.21240000E+001 -1.00000000E+001 0.00000000E+000
-2.77840000E+001 -4.08940000E+000 0.00000000E+000
-2.93300000E+001 -2.50000000E+000 0.00000000E+000
-2.42810000E+001 -8.50640000E+000 0.00000000E+000
-2.65140000E+001 -6.51440000E+000 0.00000000E+000
-2.35620000E+001 -1.00000000E+001 0.00000000E+000
-2.57570000E+001 -8.25720000E+000 0.00000000E+000
-2.98300000E+001 -3.70590000E+000 0.00000000E+000
-2.82570000E+001 -5.75720000E+000 0.00000000E+000
-2.50000000E+001 -1.00000000E+001 0.00000000E+000
-2.70070000E+001 -7.92230000E+000 0.00000000E+000
-2.79220000E+001 -7.00720000E+000 0.00000000E+000
-3.00000000E+001 -5.00000000E+000 0.00000000E+000
-2.62940000E+001 -9.82960000E+000 0.00000000E+000
-2.98300000E+001 -6.29410000E+000 0.00000000E+000
-2.75000000E+001 -9.33010000E+000 0.00000000E+000
-2.93300000E+001 -7.50000000E+000 0.00000000E+000
-2.85360000E+001 -8.53550000E+000 0.00000000E+000

CELLS       67      469
   6         130         144         143         136         142         138  
   6         156         166         143         161         155         149  
   6         170         169         158         171         164         165  
   6         144         156         143         150         149         142  
   6         166         170         158         168         165         162  
   6         169         163         158         167         160         164  
   6         121         130         143         126         138         131  
   6         163         154         148         159         152         157  
   6         148         154         134         152         145         140  
   6         163         148         158         157         153         160  
   6         158         148         143         153         146         151  
   6         111         121         127         115         123         118  
   6         154         141         134         147         139         145  
   6         134         141         129         139         135         132  
   6         158         143         166         151         155         162  
   6         148         134         127         140         128         137  
   6         127         134         116         128         125         120  
   6         127         121         143         123         131         133  
   6         111         127         116         118         120         113  
   6          98         111         116         104         113         108  
   6          79          86          94          83          91          85  
   6          86          98         105          92         101          95  
   6         143         148         127         146         137         133  
   6         116         134         129         125         132         122  
   6          98         116         105         108         110         101  
   6         105         116         129         110         122         117  
   6          19          10          16          14          12          17  
   6          10           4          11           7           6           9  
   6           4           0           5           1           2           3  
   6           4           5          11           3           8           6  
   6         129         119         105         124         112         117  
   6          94          86         105          91          95         100  
   6          94         105         119         100         112         107  
   6          79          94          87          85          90          82  
   6          16          10          11          12           9          13  
   6          19          16          29          17          21          23  
   6          87          94         109          90         103          97  
   6          79          87          74          82          80          77  
   6          29          16          26          21          20          28  
   6          19          29          37          23          32          27  
   6         119         109          94         114         103         107  
   6         109         102          87         106          93          97  
   6         102          96          81          99          88          89  
   6          74          87          81          80          84          78  
   6          79          74          71          77          73          76  
   6          26          16          22          20          18          24  
   6          26          22          39          24          30          33  
   6          29          43          49          36          46          38  
   6          37          29          49          32          38          44  
   6          19          37          31          27          34          25  
   6          31          37          51          34          45          42  
   6          51          37          56          45          47          53  
   6          31          51          48          42          50          40  
   6          48          51          62          50          57          55  
   6          62          51          64          57          58          63  
   6          48          62          60          55          61          54  
   6          60          62          74          61          69          67  
   6          11          22          16          15          18          13  
   6          49          56          37          52          47          44  
   6          70          60          74          65          67          72  
   6          39          43          26          41          35          33  
   6          26          43          29          35          36          28  
   6          64          71          62          68          66          63  
   6          81          70          74          75          72          78  
   6          56          64          51          59          58          53  
   6          87         102          81          93          89          84  
   6          62          71          74          66          73          69  

CELL_TYPES       67
   22    22    22    22    22    22    22    22    22    22    22    22    22    22    22    22    22    22    22    22    22    22    22    22    22    22    22    22    22    22    22    22    22    22    22    22    22    22    22    22    22    22    22    22    22    22    22    22    22    22    22    22    22    22    22    22    22    22    22    22    22    22    22    22    22    22    22 
POINT_DATA      172
SCALARS Ux float
LOOKUP_TABLE default
1.00000000E+000
1.00000000E+000
9.97966477E-001
9.93944889E-001
1.00000000E+000
9.90264179E-001
9.84330771E-001
1.00000000E+000
9.79730974E-001
9.76159916E-001
1.00000000E+000
9.64631749E-001
9.78180553E-001
9.59891269E-001
1.00000000E+000
9.48304380E-001
9.52583118E-001
9.61475694E-001
9.42584596E-001
1.00000000E+000
9.33725988E-001
9.31960822E-001
9.35472043E-001
9.20968623E-001
9.31444032E-001
8.73138284E-001
9.22765082E-001
8.85387335E-001
9.16329636E-001
9.04010890E-001
9.25633288E-001
8.08569238E-001
8.81536176E-001
9.22895860E-001
8.34051850E-001
9.13847273E-001
9.03832866E-001
8.41795174E-001
8.81227745E-001
9.23171779E-001
7.58063686E-001
9.20664523E-001
7.80999749E-001
9.09836030E-001
8.53240481E-001
7.98263896E-001
8.93559003E-001
8.14220272E-001
7.09910917E-001
8.67075762E-001
7.32084058E-001
7.52344501E-001
8.34169658E-001
7.72731628E-001
6.62787490E-001
6.80834041E-001
7.93859187E-001
7.01362951E-001
7.27299398E-001
7.50689365E-001
6.17851901E-001
6.34687218E-001
6.50411648E-001
6.76933140E-001
7.04675334E-001
5.75386975E-001
6.28936295E-001
5.76273989E-001
6.57541385E-001
5.87370088E-001
5.38275731E-001
6.08456883E-001
5.37817629E-001
5.58711951E-001
5.29093425E-001
5.05469695E-001
5.50777852E-001
5.08218592E-001
5.03761388E-001
4.66123571E-001
4.82417889E-001
4.83516960E-001
4.51307811E-001
3.84031058E-001
4.77341294E-001
4.02979634E-001
3.31286674E-001
4.47084878E-001
4.68578777E-001
4.65536678E-001
4.15428407E-001
3.55342318E-001
2.85285775E-001
4.42191139E-001
3.69121085E-001
3.07486071E-001
4.65515542E-001
4.15444443E-001
2.40859785E-001
4.62371472E-001
3.26744970E-001
2.62735027E-001
4.47229740E-001
3.79660642E-001
1.97926285E-001
2.83251397E-001
4.25100758E-001
3.38172644E-001
2.17581909E-001
3.93315847E-001
2.38750434E-001
1.55343423E-001
2.98089254E-001
1.75042316E-001
3.56329589E-001
1.20906025E-001
1.94393127E-001
2.55127196E-001
1.38205049E-001
3.13954119E-001
1.57915497E-001
8.52847494E-002
2.11676379E-001
1.04126096E-001
2.72290084E-001
1.65310807E-001
5.06946024E-002
1.21600749E-001
1.29332562E-001
2.29170859E-001
4.85722573E-017
5.13870640E-002
1.82830257E-001
7.42456613E-002
1.36251090E-001
1.91470745E-001
5.03069808E-017
9.34595461E-002
2.77915174E-002
1.44644622E-001
9.93977904E-002
1.53370900E-001
1.57302682E-002
3.50306984E-002
2.60208521E-017
1.12041608E-001
5.20382354E-002
1.20721300E-001
6.46478663E-002
1.24439548E-002
4.33680869E-019
3.29669538E-002
7.25752704E-002
4.09458040E-002
8.71483350E-002
1.34040918E-002
3.98986399E-017
4.51474302E-002
2.45297739E-002
5.40085785E-002
2.43313264E-002
-3.07913417E-017
9.97978321E-003
-2.08166817E-017
1.34883096E-002
9.68284506E-003
8.67361738E-019
2.08166817E-017
1.90819582E-017
2.08166817E-017
1.38777878E-017
-0.00000000E+000
