# vtk DataFile Version 1.0
ECM-CELL DIFFUSION-MECHANICS
ASCII

DATASET UNSTRUCTURED_GRID
POINTS      889 float
1.50000000E+001 3.00000000E+001 0.00000000E+000
-5.00000000E+000 3.00000000E+001 0.00000000E+000
-5.00000000E+000 0.00000000E+000 0.00000000E+000
-2.50000000E+001 0.00000000E+000 0.00000000E+000
-2.69134178E+001 -9.61939812E+000 0.00000000E+000
-2.85355339E+001 -8.53553391E+000 0.00000000E+000
-2.96193981E+001 -6.91341734E+000 0.00000000E+000
-3.00000000E+001 -5.00000000E+000 0.00000000E+000
-2.96193981E+001 -3.08658290E+000 0.00000000E+000
-2.85355339E+001 -1.46446609E+000 0.00000000E+000
-2.69134178E+001 -3.80602330E-001 0.00000000E+000
-2.50000000E+001 -1.00000000E+001 0.00000000E+000
5.00000000E+000 -1.00000000E+001 0.00000000E+000
5.00000000E+000 2.00000000E+001 0.00000000E+000
1.30000000E+001 3.00000000E+001 0.00000000E+000
1.10000000E+001 3.00000000E+001 0.00000000E+000
9.00000000E+000 3.00000000E+001 0.00000000E+000
7.00000000E+000 3.00000000E+001 0.00000000E+000
5.00000000E+000 3.00000000E+001 0.00000000E+000
3.00000000E+000 3.00000000E+001 0.00000000E+000
1.00000000E+000 3.00000000E+001 0.00000000E+000
-1.00000000E+000 3.00000000E+001 0.00000000E+000
-3.00000000E+000 3.00000000E+001 0.00000000E+000
-5.00000000E+000 2.80000000E+001 0.00000000E+000
-5.00000000E+000 2.60000000E+001 0.00000000E+000
-5.00000000E+000 2.40000000E+001 0.00000000E+000
-5.00000000E+000 2.20000000E+001 0.00000000E+000
-5.00000000E+000 2.00000000E+001 0.00000000E+000
-5.00000000E+000 1.80000000E+001 0.00000000E+000
-5.00000000E+000 1.60000000E+001 0.00000000E+000
-5.00000000E+000 1.40000000E+001 0.00000000E+000
-5.00000000E+000 1.20000000E+001 0.00000000E+000
-5.00000000E+000 1.00000000E+001 0.00000000E+000
-5.00000000E+000 8.00000000E+000 0.00000000E+000
-5.00000000E+000 6.00000000E+000 0.00000000E+000
-5.00000000E+000 4.00000000E+000 0.00000000E+000
-5.00000000E+000 2.00000000E+000 0.00000000E+000
-7.00000000E+000 0.00000000E+000 0.00000000E+000
-9.00000000E+000 0.00000000E+000 0.00000000E+000
-1.10000000E+001 0.00000000E+000 0.00000000E+000
-1.30000000E+001 0.00000000E+000 0.00000000E+000
-1.50000000E+001 0.00000000E+000 0.00000000E+000
-1.70000000E+001 0.00000000E+000 0.00000000E+000
-1.90000000E+001 0.00000000E+000 0.00000000E+000
-2.10000000E+001 0.00000000E+000 0.00000000E+000
-2.30000000E+001 0.00000000E+000 0.00000000E+000
3.00000000E+000 -1.00000000E+001 0.00000000E+000
1.00000000E+000 -1.00000000E+001 0.00000000E+000
-1.00000000E+000 -1.00000000E+001 0.00000000E+000
-3.00000000E+000 -1.00000000E+001 0.00000000E+000
-5.00000000E+000 -1.00000000E+001 0.00000000E+000
-7.00000000E+000 -1.00000000E+001 0.00000000E+000
-9.00000000E+000 -1.00000000E+001 0.00000000E+000
-1.10000000E+001 -1.00000000E+001 0.00000000E+000
-1.30000000E+001 -1.00000000E+001 0.00000000E+000
-1.50000000E+001 -1.00000000E+001 0.00000000E+000
-1.70000000E+001 -1.00000000E+001 0.00000000E+000
-1.90000000E+001 -1.00000000E+001 0.00000000E+000
-2.10000000E+001 -1.00000000E+001 0.00000000E+000
-2.30000000E+001 -1.00000000E+001 0.00000000E+000
5.00000000E+000 1.80000000E+001 0.00000000E+000
5.00000000E+000 1.60000000E+001 0.00000000E+000
5.00000000E+000 1.40000000E+001 0.00000000E+000
5.00000000E+000 1.20000000E+001 0.00000000E+000
5.00000000E+000 1.00000000E+001 0.00000000E+000
5.00000000E+000 8.00000000E+000 0.00000000E+000
5.00000000E+000 6.00000000E+000 0.00000000E+000
5.00000000E+000 4.00000000E+000 0.00000000E+000
5.00000000E+000 2.00000000E+000 0.00000000E+000
5.00000000E+000 0.00000000E+000 0.00000000E+000
5.00000000E+000 -2.00000000E+000 0.00000000E+000
5.00000000E+000 -4.00000000E+000 0.00000000E+000
5.00000000E+000 -6.00000000E+000 0.00000000E+000
5.00000000E+000 -8.00000000E+000 0.00000000E+000
6.42857122E+000 2.14285717E+001 0.00000000E+000
7.85714293E+000 2.28571434E+001 0.00000000E+000
9.28571415E+000 2.42857151E+001 0.00000000E+000
1.07142859E+001 2.57142849E+001 0.00000000E+000
1.21428576E+001 2.71428566E+001 0.00000000E+000
1.35714283E+001 2.85714283E+001 0.00000000E+000
-2.63336372E+001 -7.76659107E+000 0.00000000E+000
-2.82226868E+001 -6.43824339E+000 0.00000000E+000
-2.81175652E+001 -4.60588837E+000 0.00000000E+000
-2.61591434E+001 -2.10037327E+000 0.00000000E+000
7.94419193E+000 2.81601086E+001 0.00000000E+000
-3.19118237E+000 2.72962761E+001 0.00000000E+000
-5.94074678E+000 -1.56135583E+000 0.00000000E+000
-3.28010941E+000 6.99999666E+000 0.00000000E+000
-7.98214865E+000 -1.62386549E+000 0.00000000E+000
5.94069958E+000 2.82131767E+001 0.00000000E+000
3.96576309E+000 2.81945496E+001 0.00000000E+000
1.96850979E+000 2.81876316E+001 0.00000000E+000
-9.25469864E-003 2.82110806E+001 0.00000000E+000
-3.19306159E+000 2.51208878E+001 0.00000000E+000
-3.24140286E+000 2.30419273E+001 0.00000000E+000
-3.26721168E+000 2.10157700E+001 0.00000000E+000
-3.29015899E+000 1.90030117E+001 0.00000000E+000
-3.29848814E+000 1.69995918E+001 0.00000000E+000
-3.29507470E+000 1.49994574E+001 0.00000000E+000
-3.28950334E+000 1.29997454E+001 0.00000000E+000
-3.28517389E+000 1.09999161E+001 0.00000000E+000
-3.28540468E+000 8.99997520E+000 0.00000000E+000
-3.28817058E+000 4.99999905E+000 0.00000000E+000
-3.32450199E+000 2.98746324E+000 0.00000000E+000
-3.41863847E+000 9.27179158E-001 0.00000000E+000
-9.99433708E+000 -1.64214647E+000 0.00000000E+000
-1.19982300E+001 -1.64728785E+000 0.00000000E+000
-1.39994688E+001 -1.64868796E+000 0.00000000E+000
-1.59998932E+001 -1.64905524E+000 0.00000000E+000
-1.80005169E+001 -1.65485740E+000 0.00000000E+000
-1.99944210E+001 -1.67004955E+000 0.00000000E+000
-2.19607010E+001 -1.70543468E+000 0.00000000E+000
-2.40205898E+001 -8.05579758E+000 0.00000000E+000
-2.39267063E+001 -1.82353294E+000 0.00000000E+000
2.29777122E+000 -8.18962097E+000 0.00000000E+000
1.23059466E-001 -8.18267441E+000 0.00000000E+000
-1.95802188E+000 -8.22096157E+000 0.00000000E+000
-3.98471189E+000 -8.24636459E+000 0.00000000E+000
-5.99523783E+000 -8.26851940E+000 0.00000000E+000
-7.99814987E+000 -8.27763176E+000 0.00000000E+000
-9.99911308E+000 -8.28131580E+000 0.00000000E+000
-1.19996176E+001 -8.28250790E+000 0.00000000E+000
-1.39998579E+001 -8.28286648E+000 0.00000000E+000
-1.59999981E+001 -8.28308964E+000 0.00000000E+000
-1.80003262E+001 -8.28923416E+000 0.00000000E+000
-1.99951019E+001 -8.28801823E+000 0.00000000E+000
-2.19786606E+001 -8.23145771E+000 0.00000000E+000
3.37062716E+000 1.89233551E+001 0.00000000E+000
3.34054041E+000 1.69807224E+001 0.00000000E+000
3.33640957E+000 1.49944878E+001 0.00000000E+000
3.34315801E+000 1.29984617E+001 0.00000000E+000
3.34957194E+000 1.09995937E+001 0.00000000E+000
3.35198402E+000 8.99989700E+000 0.00000000E+000
3.35113668E+000 6.99997568E+000 0.00000000E+000
3.34448671E+000 4.99999523E+000 0.00000000E+000
3.32652950E+000 2.99973011E+000 0.00000000E+000
3.30527616E+000 9.98020113E-001 0.00000000E+000
3.28119373E+000 -1.01071751E+000 0.00000000E+000
3.25898099E+000 -3.01927686E+000 0.00000000E+000
3.24397135E+000 -5.00071239E+000 0.00000000E+000
1.02151985E+001 2.80007057E+001 0.00000000E+000
8.72700691E+000 2.62242470E+001 0.00000000E+000
4.53118944E+000 2.19883575E+001 0.00000000E+000
7.42255640E+000 2.47146339E+001 0.00000000E+000
6.02210903E+000 2.33871956E+001 0.00000000E+000
-2.49141693E+001 -5.84206676E+000 0.00000000E+000
-2.77587090E+001 -3.09401059E+000 0.00000000E+000
-3.74367332E+000 -1.32242095E+000 0.00000000E+000
3.37542582E+000 -6.68383884E+000 0.00000000E+000
-1.68782008E+000 2.83659058E+001 0.00000000E+000
2.93006825E+000 2.63407249E+001 0.00000000E+000
1.37449419E+000 -6.19837618E+000 0.00000000E+000
-6.99313116E+000 -6.56894302E+000 0.00000000E+000
-8.99560261E+000 -6.58624029E+000 0.00000000E+000
-1.09978485E+001 -6.59370756E+000 0.00000000E+000
-1.29991169E+001 -6.59640884E+000 0.00000000E+000
-1.49997482E+001 -6.59741163E+000 0.00000000E+000
-1.70005054E+001 -6.60687542E+000 0.00000000E+000
-1.89910336E+001 -6.61446953E+000 0.00000000E+000
-2.09443874E+001 -6.58081102E+000 0.00000000E+000
-1.56252813E+000 2.00199757E+001 0.00000000E+000
1.69096434E+000 1.59887323E+001 0.00000000E+000
1.69573748E+000 1.39958906E+001 0.00000000E+000
1.70559001E+000 1.19987364E+001 0.00000000E+000
1.71235800E+000 9.99965000E+000 0.00000000E+000
1.70500433E+000 5.99998617E+000 0.00000000E+000
1.67963386E+000 3.99886894E+000 0.00000000E+000
1.64330435E+000 1.99145818E+000 0.00000000E+000
9.05702949E-001 2.64169083E+001 0.00000000E+000
-1.23154819E+000 2.63408546E+001 0.00000000E+000
-1.48619592E+000 2.40970173E+001 0.00000000E+000
-1.52001476E+000 2.20616055E+001 0.00000000E+000
-1.60393560E+000 1.80015297E+001 0.00000000E+000
1.71200323E+000 7.99990702E+000 0.00000000E+000
1.57110965E+000 -2.04215574E+000 0.00000000E+000
-8.83958101E-001 -6.38697195E+000 0.00000000E+000
-2.94760537E+000 -6.42948389E+000 0.00000000E+000
-4.98543882E+000 -6.52348185E+000 0.00000000E+000
-6.97729588E+000 -3.23084092E+000 0.00000000E+000
-8.98907471E+000 -3.26648521E+000 0.00000000E+000
-1.09956169E+001 -3.28038645E+000 0.00000000E+000
-1.29984198E+001 -3.28506351E+000 0.00000000E+000
-1.49995422E+001 -3.28655887E+000 0.00000000E+000
-1.70005360E+001 -3.29590154E+000 0.00000000E+000
-1.89907722E+001 -3.31196833E+000 0.00000000E+000
-2.09331837E+001 -3.33244610E+000 0.00000000E+000
-1.61828923E+000 1.59975128E+001 0.00000000E+000
-1.61388779E+000 1.39984798E+001 0.00000000E+000
-1.60545456E+000 1.19994555E+001 0.00000000E+000
-1.59979153E+000 9.99984074E+000 0.00000000E+000
-1.59754860E+000 7.99995708E+000 0.00000000E+000
-1.60532558E+000 5.99998999E+000 0.00000000E+000
-1.63823593E+000 3.99409580E+000 0.00000000E+000
-1.70293796E+000 1.96242869E+000 0.00000000E+000
1.60747373E+000 -2.72606201E-002 0.00000000E+000
1.55121040E+000 -4.03328276E+000 0.00000000E+000
4.92077351E+000 2.64265118E+001 0.00000000E+000
1.72852290E+000 1.79747887E+001 0.00000000E+000
-2.27829800E+001 -3.40262842E+000 0.00000000E+000
-2.28547916E+001 -6.42256784E+000 0.00000000E+000
3.40620279E+000 2.06201363E+001 0.00000000E+000
[...]
POINT_DATA      889
SCALARS Ux float
LOOKUP_TABLE default
1.00000000E+000
9.19843689E-001
4.62689985E-001
6.76542156E-017
1.90385901E-016
1.34007389E-016
3.06178694E-016
7.71951947E-017
1.03649728E-016
1.08420217E-016
8.15320034E-017
1.73472348E-016
4.62726067E-001
1.00000000E+000
9.98371156E-001
9.93575806E-001
9.85670989E-001
9.74988907E-001
9.62454324E-001
9.49416178E-001
9.37453331E-001
9.27979574E-001
9.21865618E-001
9.17749798E-001
9.11302439E-001
9.00148244E-001
8.83856300E-001
8.62270410E-001
8.35773329E-001
8.05276622E-001
7.71889120E-001
7.36564357E-001
6.99921513E-001
6.62203957E-001
6.23231557E-001
5.82153331E-001
5.36529740E-001
3.88776545E-001
3.43031610E-001
3.01735820E-001
2.62359940E-001
2.23888489E-001
1.85833713E-001
1.47855419E-001
1.09416110E-001
6.91610133E-002
4.59798933E-001
4.50945268E-001
4.36288655E-001
4.16043466E-001
3.90754804E-001
3.61309792E-001
3.28786581E-001
2.94204699E-001
2.58353141E-001
2.21753729E-001
1.84697451E-001
1.47253707E-001
1.09108001E-001
6.90844596E-002
8.77943695E-001
8.27309239E-001
7.83920376E-001
7.43774543E-001
7.05292765E-001
6.67936097E-001
6.31681389E-001
5.96884861E-001
5.64248533E-001
5.34747283E-001
5.09435016E-001
4.89182529E-001
4.74547852E-001
4.65619873E-001
1.00000000E+000
1.00000000E+000
1.00000000E+000
1.00000000E+000
1.00000000E+000
1.00000000E+000
2.08235161E-002
9.68783318E-003
1.20811567E-002
2.19271648E-002
9.81345461E-001
9.17759915E-001
4.09990312E-001
6.43439267E-001
3.63438218E-001
9.69008234E-001
9.55549162E-001
9.42237681E-001
9.31031478E-001
9.09009578E-001
8.95061232E-001
8.75865899E-001
8.51297345E-001
8.22195535E-001
7.89717499E-001
7.54975593E-001
7.18784071E-001
6.81577946E-001
6.04037467E-001
5.62075772E-001
5.15170828E-001
3.21287519E-001
2.81516665E-001
2.42859696E-001
2.04749899E-001
1.66876237E-001
1.29135544E-001
9.14942762E-002
5.33559580E-002
5.45886264E-002
4.59707246E-001
4.47607579E-001
4.29405004E-001
4.05977819E-001
3.77919904E-001
3.46330553E-001
3.12299632E-001
2.76752602E-001
2.40327752E-001
2.03404422E-001
1.66170147E-001
1.28759747E-001
9.10080605E-002
8.94236104E-001
8.47269917E-001
8.03432786E-001
7.62838311E-001
7.23949288E-001
6.86141282E-001
6.49253791E-001
6.13474914E-001
5.79328258E-001
5.47688764E-001
5.19630527E-001
4.96383839E-001
4.78883440E-001
9.92366951E-001
9.89435732E-001
9.62403324E-001
9.86349442E-001
9.79475018E-001
4.60492475E-002
1.19401536E-002
4.61554391E-001
4.68912864E-001
9.24221770E-001
9.46926414E-001
4.63705974E-001
3.65914983E-001
3.31735544E-001
2.95951473E-001
2.59346504E-001
2.22329858E-001
1.85112197E-001
1.48055901E-001
1.11953796E-001
8.70077188E-001
8.19473498E-001
7.80317222E-001
7.41838526E-001
7.03954556E-001
6.29851001E-001
5.94019883E-001
5.59737035E-001
9.32625129E-001
9.20882794E-001
9.08826663E-001
8.92773349E-001
8.41657514E-001
6.66595356E-001
5.01305554E-001
4.46607851E-001
4.24937975E-001
3.97359377E-001
3.78534458E-001
3.38752042E-001
2.99714089E-001
2.61348268E-001
2.23392943E-001
1.85671562E-001
1.48348103E-001
1.12268191E-001
8.09271717E-001
7.74468133E-001
7.38278479E-001
7.01290529E-001
6.63757887E-001
6.25701074E-001
5.86864799E-001
5.46836888E-001
5.28222015E-001
4.80428683E-001
9.62774410E-001
8.58889199E-001
7.89676146E-002
7.79158089E-002
9.29476573E-001
9.76858109E-001
9.55156562E-001
4.98090724E-002
9.96973884E-001
2.77788428E-002
6.98434561E-002
9.26766758E-001
8.31713695E-001
5.06595636E-001
4.17234480E-001
4.64146647E-001
4.20625582E-001
3.88794692E-001
3.53356715E-001
3.16432535E-001
2.79068519E-001
2.41606446E-001
2.04142606E-001
1.66911347E-001
4.79247061E-001
6.09241559E-001
5.72238922E-001
4.50556368E-001
5.04384154E-001
5.36363927E-001
6.46511509E-001
6.83909553E-001
7.21328985E-001
7.58659902E-001
7.95670888E-001
9.12695562E-001
8.93871500E-001
8.65337302E-001
1.30643192E-001
8.95777208E-001
9.69539499E-002
9.72246206E-001
4.74499156E-001
4.44536908E-001
9.32917217E-001
9.21667393E-001
2.35346000E-002
9.79148148E-001
9.75494902E-001
9.72536016E-001
9.17253761E-001
9.15206387E-001
9.14305482E-001
4.10661774E-001
4.22268088E-001
4.18509967E-001
6.95777648E-001
7.14711797E-001
7.04902441E-001
3.86122002E-001
4.02070870E-001
3.76218042E-001
3.66432551E-002
4.40117470E-002
5.78549689E-002
8.33168523E-003
1.11889664E-016
1.09456647E-002
5.58621231E-003
1.52464889E-002
2.63736415E-002
1.91627850E-002
1.77038726E-002
5.28784989E-003
4.75837396E-003
1.16942290E-002
2.36420287E-002
3.41764062E-002
3.36571219E-002
1.67295633E-002
8.53818328E-003
5.98760609E-003
9.81000709E-001
9.88027348E-001
9.83573425E-001
9.77896078E-001
9.71953737E-001
9.51672114E-001
9.48710521E-001
9.44460751E-001
9.62370812E-001
9.65563513E-001
9.59097833E-001
9.59666466E-001
9.54842310E-001
9.50288667E-001
9.52448347E-001
9.46053454E-001
9.36232410E-001
9.39965345E-001
9.34551275E-001
9.20956926E-001
9.19843689E-001
9.20186705E-001
9.19482683E-001
9.23176680E-001
9.20869333E-001
9.14236062E-001
9.09662774E-001
9.02898206E-001
9.04227367E-001
8.97144412E-001
8.86333735E-001
8.89055547E-001
8.79455635E-001
8.64375526E-001
8.68648826E-001
8.56477791E-001
8.37368264E-001
8.43160589E-001
8.28779656E-001
8.06384206E-001
8.13444849E-001
7.97368225E-001
7.72618603E-001
7.80601187E-001
7.63348503E-001
7.37056519E-001
7.45639292E-001
7.27607259E-001
6.71825398E-001
6.52695427E-001
6.62662461E-001
6.23978618E-001
6.33265840E-001
6.13382512E-001
5.83538439E-001
5.93001650E-001
5.71544043E-001
5.39254731E-001
5.49165631E-001
5.23090161E-001
4.46637773E-001
4.55095193E-001
4.56312771E-001
3.41889173E-001
3.53759079E-001
3.32226136E-001
3.01180966E-001
3.11732460E-001
2.91664158E-001
2.62077141E-001
2.72040943E-001
2.52628952E-001
2.23750029E-001
2.33425145E-001
2.14323859E-001
1.85793676E-001
1.95318168E-001
1.76337428E-001
1.48026138E-001
1.57380344E-001
1.38410885E-001
1.10440314E-001
1.19285347E-001
1.00148782E-001
9.97316560E-002
1.18923593E-001
1.10023698E-001
3.72839816E-002
1.90502382E-002
3.46494473E-002
4.62726067E-001
4.62224057E-001
4.63219744E-001
4.59091513E-001
4.64288072E-001
4.48709319E-001
4.54986415E-001
4.54745831E-001
4.61022722E-001
4.64062309E-001
4.67154049E-001
4.32390711E-001
4.41487216E-001
4.39452009E-001
3.84099235E-001
3.97960485E-001
3.92600425E-001
3.55733345E-001
3.62589191E-001
3.71878760E-001
3.39056599E-001
3.49155633E-001
3.04160471E-001
3.21759752E-001
3.14018632E-001
2.68076065E-001
2.86197368E-001
2.77737999E-001
2.31342864E-001
2.49750774E-001
2.40882152E-001
1.94256302E-001
2.12825336E-001
2.03738152E-001
1.57076344E-001
1.75639346E-001
1.66574626E-001
1.20219097E-001
1.38480810E-001
1.29928615E-001
8.79107111E-001
8.62628492E-001
8.78403129E-001
8.52702514E-001
8.36859582E-001
8.49182647E-001
8.12110969E-001
8.24617406E-001
8.32628142E-001
7.91664378E-001
7.99785084E-001
7.52275919E-001
7.71879564E-001
7.60969051E-001
7.13959140E-001
7.33035213E-001
7.22811189E-001
6.58680880E-001
6.77099984E-001
6.67552221E-001
6.21649068E-001
6.31164938E-001
6.39689199E-001
6.03988257E-001
6.11749625E-001
5.69903113E-001
5.86658882E-001
5.76544278E-001
5.27573640E-001
5.41441758E-001
5.33007323E-001
5.03346005E-001
5.14859824E-001
5.07207041E-001
4.84509692E-001
4.93197007E-001
4.86784938E-001
4.67499812E-001
4.69214187E-001
4.72224423E-001
9.90881600E-001
9.87433804E-001
9.84900062E-001
9.95512894E-001
1.00000000E+000
9.96534638E-001
9.95001115E-001
9.98157656E-001
9.95193847E-001
9.92588514E-001
9.98797584E-001
9.98973256E-001
9.97613997E-001
1.00000000E+000
9.99676643E-001
1.09038052E-002
4.35415592E-016
2.75821033E-016
1.88643851E-002
3.04227130E-016
4.32117692E-003
3.29597460E-017
5.17957396E-003
5.74158504E-003
1.26525711E-002
1.65666092E-016
8.76666591E-002
9.46010826E-002
1.04515800E-001
1.03216047E-016
9.83322318E-001
9.80692669E-001
9.68915541E-001
9.06481201E-001
9.39317509E-001
9.37890706E-001
4.29449037E-001
4.16219370E-001
3.64893092E-001
6.42947927E-001
6.03130168E-001
3.21967083E-001
3.53672481E-001
3.69295540E-001
9.55893128E-001
9.93781128E-001
9.94089783E-001
9.43153404E-001
9.90553240E-001
9.92195592E-001
9.83531019E-001
9.32241697E-001
9.29731446E-001
9.17824641E-001
9.23281235E-001
9.26605322E-001
9.27216858E-001
9.26429727E-001
9.26087865E-001
9.31949578E-001
9.26439041E-001
8.92808624E-001
9.15812665E-001
9.14671356E-001
9.08445620E-001
8.73857362E-001
8.83852228E-001
8.72652515E-001
8.82428360E-001
8.49710654E-001
9.18039550E-001
9.30606821E-001
8.21049108E-001
8.44313195E-001
7.88942535E-001
8.62938841E-001
8.92141177E-001
8.70364752E-001
7.54464333E-001
8.15474611E-001
8.38239794E-001
7.18414482E-001
7.09267222E-001
7.73451135E-001
7.94058813E-001
7.82783896E-001
7.00319279E-001
6.90672665E-001
7.33917952E-001
7.53477974E-001
7.43193551E-001
6.81226622E-001
6.76432868E-001
6.95107776E-001
6.85192344E-001
5.60364776E-001
6.22713286E-001
6.40527892E-001
5.09080074E-001
4.95778846E-001
5.88317592E-001
6.05264174E-001
5.96094129E-001
4.01886565E-001
3.98260181E-001
3.84151125E-001
5.56271134E-001
5.71926981E-001
5.63040749E-001
2.81856282E-001
3.20458097E-001
3.37332839E-001
3.29611445E-001
2.43032025E-001
2.85431363E-001
3.03107621E-001
2.94701205E-001
2.04823906E-001
2.49313185E-001
2.67466791E-001
2.58639393E-001
1.66861332E-001
2.12558364E-001
2.30991804E-001
2.21923012E-001
1.28775949E-001
1.75401264E-001
1.94023749E-001
1.84826978E-001
8.97430927E-002
8.02424859E-002
1.37910282E-001
1.56697180E-001
1.47515840E-001
7.26464938E-002
5.88982213E-002
6.36744893E-002
6.75383706E-002
5.23525842E-002
3.34656635E-002
7.99149382E-002
8.95409948E-002
4.43503563E-002
3.77734988E-002
3.61212626E-002
2.64663211E-002
4.56254053E-001
5.19568674E-001
5.17005090E-001
5.32235054E-001
4.63914452E-001
4.70998097E-001
4.72740719E-001
4.44494627E-001
4.26798961E-001
4.37447222E-001
4.36773050E-001
4.26985845E-001
4.08221022E-001
4.11947272E-001
4.22663599E-001
4.04108858E-001
3.76719933E-001
3.82194635E-001
3.93167114E-001
3.76585197E-001
3.59826943E-001
3.71429199E-001
3.45434720E-001
3.24250949E-001
3.42135909E-001
3.35019168E-001
3.11741570E-001
2.87620200E-001
3.05958076E-001
2.97786687E-001
2.76425513E-001
2.50541485E-001
2.69081181E-001
2.60345388E-001
2.40139305E-001
2.13272768E-001
2.31903402E-001
2.22870043E-001
2.03282931E-001
1.76032264E-001
1.94603069E-001
1.85505158E-001
1.66042521E-001
1.39367013E-001
1.57506384E-001
1.48706004E-001
1.28345675E-001
8.30674931E-002
7.41430119E-002
7.16232739E-002
9.13878154E-001
9.23518584E-001
9.48419939E-001
9.69887835E-001
9.50811432E-001
8.13945833E-001
8.19926687E-001
8.02672142E-001
8.51010777E-001
7.92152276E-001
7.84738293E-001
8.04911228E-001
7.66698570E-001
7.56526491E-001
7.48300260E-001
7.63517805E-001
7.29862077E-001
7.19877468E-001
7.11247207E-001
7.24340124E-001
6.55039093E-001
6.44814178E-001
6.36233657E-001
6.86456821E-001
6.17260629E-001
6.27834153E-001
6.49624408E-001
6.06390881E-001
5.98362762E-001
6.14017683E-001
5.79177198E-001
5.66901352E-001
5.60200868E-001
5.80170169E-001
5.38434083E-001
5.53751572E-001
5.43411054E-001
5.48939752E-001
4.70908990E-001
4.80208514E-001
5.21379296E-001
4.88883587E-001
4.99152334E-001
4.89955881E-001
4.98486812E-001
4.73243620E-001
4.71790098E-001
4.77161357E-001
4.80973142E-001
9.90092715E-001
9.88695876E-001
1.00000000E+000
9.95229112E-001
1.00000000E+000
9.82380099E-001
9.87215784E-001
1.00000000E+000
9.74769185E-001
9.70101376E-001
9.67033027E-001
1.00000000E+000
9.64596232E-001
9.73517099E-001
5.00525271E-002
6.64238927E-002
8.42409427E-002
3.82940207E-016
1.95257920E-002
4.85852290E-001
4.61923189E-001
4.38292119E-001
9.24362577E-001
9.23089350E-001
9.18754214E-001
9.40775349E-001
9.32800307E-001
4.90778373E-001
4.90847424E-001
5.03047775E-001
3.87122067E-001
4.01495990E-001
3.46446813E-001
3.27270780E-001
3.08306652E-001
2.89237374E-001
2.70337071E-001
2.51401064E-001
2.32571788E-001
2.13728362E-001
1.94956122E-001
1.76270551E-001
1.57691883E-001
1.39486973E-001
1.13605224E-001
1.21595813E-001
1.04633417E-001
9.53484535E-002
8.82475236E-002
1.01847737E-001
8.60136535E-001
8.46355139E-001
8.31444403E-001
8.54319920E-001
8.74697480E-001
7.77245608E-001
7.40015729E-001
6.92586311E-001
7.02619936E-001
6.73857043E-001
6.65197339E-001
6.48111761E-001
6.57937923E-001
5.90613199E-001
5.53929153E-001
5.41116221E-001
5.26272164E-001
5.32200491E-001
5.09505680E-001
8.93438834E-001
9.01619378E-001
9.01757569E-001
9.21137692E-001
9.15065410E-001
9.13919533E-001
9.09455992E-001
8.94484178E-001
9.43644228E-001
9.43073893E-001
8.56661149E-001
8.25970723E-001
8.15727621E-001
6.82599270E-001
5.10980346E-001
5.13966816E-001
5.24089304E-001
4.47935539E-001
4.54944929E-001
4.58254594E-001
4.37153612E-001
4.14841815E-001
4.14850135E-001
3.93104144E-001
3.71816105E-001
3.58599771E-001
3.50696429E-001
3.30426597E-001
3.19128816E-001
3.10371906E-001
2.90809477E-001
2.80458774E-001
2.71378583E-001
2.52202860E-001
2.42327120E-001
2.33098362E-001
2.14128004E-001
2.04502927E-001
1.95186102E-001
1.76323681E-001
1.66976313E-001
1.57562916E-001
1.38839759E-001
1.30226594E-001
1.20559659E-001
1.02237307E-001
8.50025889E-002
7.99150206E-001
7.82116930E-001
7.64507540E-001
7.46635869E-001
7.28414128E-001
7.10009525E-001
6.91386672E-001
6.72580603E-001
6.53614195E-001
6.34377769E-001
6.14981650E-001
5.95043551E-001
5.74869522E-001
5.53623087E-001
5.22646156E-001
5.05493086E-001
5.48669906E-001
5.65814774E-001
4.80065801E-001
9.66106181E-001
9.58838638E-001
8.39288421E-001
8.96698495E-001
9.16786266E-001
9.10928090E-001
6.09802734E-002
9.42232193E-001
9.57833803E-001
9.66504430E-001
9.75160846E-001
5.99759511E-002
4.91884155E-002
5.77138251E-002
1.00000000E+000
9.96442066E-001
1.60556194E-002
3.70726826E-002
7.45680151E-002
9.04617893E-001
9.28422590E-001
8.26122600E-001
4.86523545E-001
4.90283463E-001
4.89031396E-001
4.60980411E-001
4.65298116E-001
4.77378605E-001
4.59952135E-001
4.69289931E-001
4.51549227E-001
4.05448607E-001
4.19040394E-001
4.36810191E-001
3.65286023E-001
4.47909657E-001
6.01487619E-001
6.19762102E-001
6.38105898E-001
5.83528277E-001
4.36678874E-001
6.56649118E-001
6.75245755E-001
6.93940342E-001
7.12710669E-001
7.31501774E-001
7.50422473E-001
7.69265681E-001
7.88325984E-001
8.07078522E-001
9.10135063E-001
9.02416648E-001
8.92759709E-001
8.81211771E-001
8.80837332E-001
8.67611339E-001
1.21414468E-001
9.79572987E-001
4.31901833E-001
4.31735880E-001
9.27619856E-001
