# vtk DataFile Version 1.0
ECM-CELL DIFFUSION-MECHANICS
ASCII

DATASET UNSTRUCTURED_GRID
POINTS      250 float
1.50000000E+001 3.00000000E+001 0.00000000E+000
1.30000000E+001 3.00000000E+001 0.00000000E+000
1.35710000E+001 2.85710000E+001 0.00000000E+000
1.10000000E+001 3.00000000E+001 0.00000000E+000
1.21430000E+001 2.71430000E+001 0.00000000E+000
1.00000000E+001 2.82680000E+001 0.00000000E+000
9.00000000E+000 3.00000000E+001 0.00000000E+000
1.07140000E+001 2.57140000E+001 0.00000000E+000
8.33460000E+000 2.83710000E+001 0.00000000E+000
9.00000000E+000 2.65360000E+001 0.00000000E+000
7.00000000E+000 3.00000000E+001 0.00000000E+000
9.28570000E+000 2.42860000E+001 0.00000000E+000
6.67280000E+000 2.70530000E+001 0.00000000E+000
6.77880000E+000 2.50540000E+001 0.00000000E+000
5.00000000E+000 3.00000000E+001 0.00000000E+000
7.85710000E+000 2.28570000E+001 0.00000000E+000
4.98060000E+000 2.83140000E+001 0.00000000E+000
4.99670000E+000 2.59620000E+001 0.00000000E+000
5.51920000E+000 2.37580000E+001 0.00000000E+000
3.00000000E+000 3.00000000E+001 0.00000000E+000
6.42860000E+000 2.14290000E+001 0.00000000E+000
3.21410000E+000 2.68670000E+001 0.00000000E+000
3.32000000E+000 2.48730000E+001 0.00000000E+000
3.73370000E+000 2.23710000E+001 0.00000000E+000
1.30180000E+000 2.77520000E+001 0.00000000E+000
1.00000000E+000 3.00000000E+001 0.00000000E+000
1.54580000E+000 2.57700000E+001 0.00000000E+000
5.00000000E+000 2.00000000E+001 0.00000000E+000
1.63350000E+000 2.38210000E+001 0.00000000E+000
3.01190000E+000 2.06780000E+001 0.00000000E+000
-1.62660000E-001 2.85160000E+001 0.00000000E+000
5.00000000E+000 1.80000000E+001 0.00000000E+000
1.64040000E+000 2.18300000E+001 0.00000000E+000
-2.86270000E-001 2.65410000E+001 0.00000000E+000
4.06420000E-003 2.45740000E+001 0.00000000E+000
-1.00000000E+000 3.00000000E+001 0.00000000E+000
3.39280000E+000 1.88640000E+001 0.00000000E+000
1.68240000E+000 1.98910000E+001 0.00000000E+000
-1.86220000E-001 2.26080000E+001 0.00000000E+000
5.00000000E+000 1.60000000E+001 0.00000000E+000
-1.66170000E+000 2.56700000E+001 0.00000000E+000
-2.08720000E+000 2.78760000E+001 0.00000000E+000
3.29410000E+000 1.68880000E+001 0.00000000E+000
1.05170000E-001 2.06440000E+001 0.00000000E+000
-1.75690000E+000 2.36790000E+001 0.00000000E+000
-3.00000000E+000 3.00000000E+001 0.00000000E+000
1.66700000E+000 1.78960000E+001 0.00000000E+000
-1.52380000E+000 2.17920000E+001 0.00000000E+000
3.66030000E+000 1.50000000E+001 0.00000000E+000
-3.49950000E+000 2.64040000E+001 0.00000000E+000
5.00000000E+000 1.40000000E+001 0.00000000E+000
-1.62270000E-001 1.86910000E+001 0.00000000E+000
1.92820000E+000 1.60000000E+001 0.00000000E+000
-3.57130000E+000 2.45060000E+001 0.00000000E+000
-1.67830000E+000 1.98050000E+001 0.00000000E+000
-3.35940000E+000 2.25230000E+001 0.00000000E+000
8.17720000E-002 1.67120000E+001 0.00000000E+000
-5.00000000E+000 3.00000000E+001 0.00000000E+000
-5.00000000E+000 2.80000000E+001 0.00000000E+000
-1.42460000E+000 1.79410000E+001 0.00000000E+000
-5.00000000E+000 2.60000000E+001 0.00000000E+000
3.66030000E+000 1.30000000E+001 0.00000000E+000
5.00000000E+000 1.20000000E+001 0.00000000E+000
1.92820000E+000 1.40000000E+001 0.00000000E+000
-3.49740000E+000 2.06190000E+001 0.00000000E+000
-5.00000000E+000 2.40000000E+001 0.00000000E+000
1.96150000E-001 1.50000000E+001 0.00000000E+000
-3.26770000E+000 1.86400000E+001 0.00000000E+000
-5.00000000E+000 2.20000000E+001 0.00000000E+000
-1.53590000E+000 1.60000000E+001 0.00000000E+000
3.29410000E+000 1.11120000E+001 0.00000000E+000
1.92820000E+000 1.20000000E+001 0.00000000E+000
5.00000000E+000 1.00000000E+001 0.00000000E+000
-5.00000000E+000 2.00000000E+001 0.00000000E+000
-3.26790000E+000 1.70000000E+001 0.00000000E+000
1.96150000E-001 1.30000000E+001 0.00000000E+000
-1.53590000E+000 1.40000000E+001 0.00000000E+000
-5.00000000E+000 1.80000000E+001 0.00000000E+000
-3.26790000E+000 1.50000000E+001 0.00000000E+000
3.39280000E+000 9.13560000E+000 0.00000000E+000
1.66700000E+000 1.01040000E+001 0.00000000E+000
1.96150000E-001 1.10000000E+001 0.00000000E+000
5.00000000E+000 8.00000000E+000 0.00000000E+000
-5.00000000E+000 1.60000000E+001 0.00000000E+000
-1.53590000E+000 1.20000000E+001 0.00000000E+000
-3.26790000E+000 1.30000000E+001 0.00000000E+000
1.97120000E+000 8.16660000E+000 0.00000000E+000
3.65760000E+000 7.21990000E+000 0.00000000E+000
-5.00000000E+000 1.40000000E+001 0.00000000E+000
1.96150000E-001 9.00000000E+000 0.00000000E+000
-1.53590000E+000 1.00000000E+001 0.00000000E+000
5.00000000E+000 6.00000000E+000 0.00000000E+000
-3.26790000E+000 1.10000000E+001 0.00000000E+000
-5.00000000E+000 1.20000000E+001 0.00000000E+000
1.96650000E+000 6.18290000E+000 0.00000000E+000
1.96150000E-001 7.00000000E+000 0.00000000E+000
3.16390000E+000 5.32810000E+000 0.00000000E+000
-1.53590000E+000 8.00000000E+000 0.00000000E+000
-3.26790000E+000 9.00000000E+000 0.00000000E+000
5.00000000E+000 4.00000000E+000 0.00000000E+000
-5.00000000E+000 1.00000000E+001 0.00000000E+000
-1.64130000E-001 5.36050000E+000 0.00000000E+000
1.55890000E+000 4.34580000E+000 0.00000000E+000
3.26550000E+000 3.35960000E+000 0.00000000E+000
-1.53590000E+000 6.00000000E+000 0.00000000E+000
-3.26790000E+000 7.00000000E+000 0.00000000E+000
-5.00000000E+000 8.00000000E+000 0.00000000E+000
5.00000000E+000 2.00000000E+000 0.00000000E+000
-1.79790000E-001 3.36100000E+000 0.00000000E+000
-1.58190000E+000 4.11040000E+000 0.00000000E+000
1.54560000E+000 2.35300000E+000 0.00000000E+000
-3.29040000E+000 5.09730000E+000 0.00000000E+000
3.28040000E+000 1.36140000E+000 0.00000000E+000
-5.00000000E+000 6.00000000E+000 0.00000000E+000
5.00000000E+000 1.77640000E-015 0.00000000E+000
-1.90780000E-001 1.36140000E+000 0.00000000E+000
-1.69730000E+000 2.20820000E+000 0.00000000E+000
-3.36850000E+000 3.26420000E+000 0.00000000E+000
1.55350000E+000 3.53500000E-001 0.00000000E+000
3.34310000E+000 -5.18540000E-001 0.00000000E+000
-5.00000000E+000 4.00000000E+000 0.00000000E+000
5.00000000E+000 -2.00000000E+000 0.00000000E+000
-1.94220000E-002 -6.15240000E-001 0.00000000E+000
-3.47490000E+000 1.32680000E+000 0.00000000E+000
-1.79270000E+000 2.74870000E-001 0.00000000E+000
1.67530000E+000 -1.60560000E+000 0.00000000E+000
-5.00000000E+000 2.00000000E+000 0.00000000E+000
3.45500000E+000 -2.51310000E+000 0.00000000E+000
5.00000000E+000 -4.00000000E+000 0.00000000E+000
-1.68310000E+000 -1.71820000E+000 0.00000000E+000
-3.55210000E+000 -6.67730000E-001 0.00000000E+000
-4.59510000E-002 -2.60590000E+000 0.00000000E+000
-5.00000000E+000 0.00000000E+000 0.00000000E+000
1.68490000E+000 -3.60330000E+000 0.00000000E+000
3.46880000E+000 -4.49200000E+000 0.00000000E+000
-7.09430000E+000 0.00000000E+000 0.00000000E+000
-3.25050000E+000 -2.51340000E+000 0.00000000E+000
5.00000000E+000 -6.00000000E+000 0.00000000E+000
-1.76770000E+000 -3.60690000E+000 0.00000000E+000
8.21130000E-002 -4.59340000E+000 0.00000000E+000
1.79380000E+000 -5.57190000E+000 0.00000000E+000
-5.30340000E+000 -2.22580000E+000 0.00000000E+000
3.56980000E+000 -6.48770000E+000 0.00000000E+000
-9.18850000E+000 0.00000000E+000 0.00000000E+000
-7.42780000E+000 -1.97660000E+000 0.00000000E+000
-3.94620000E+000 -4.34830000E+000 0.00000000E+000
5.00000000E+000 -8.00000000E+000 0.00000000E+000
-1.59430000E+000 -5.68020000E+000 0.00000000E+000
7.83180000E-002 -6.58640000E+000 0.00000000E+000
-1.12830000E+001 0.00000000E+000 0.00000000E+000
2.06070000E+000 -7.86590000E+000 0.00000000E+000
-6.55970000E+000 -3.82580000E+000 0.00000000E+000
-9.42160000E+000 -1.83740000E+000 0.00000000E+000
-3.32070000E+000 -6.67820000E+000 0.00000000E+000
-8.54890000E+000 -3.63120000E+000 0.00000000E+000
5.94800000E-002 -8.41540000E+000 0.00000000E+000
5.00000000E+000 -1.00000000E+001 0.00000000E+000
-5.73670000E+000 -5.64820000E+000 0.00000000E+000
-1.33770000E+001 0.00000000E+000 0.00000000E+000
-1.47150000E+000 -7.92040000E+000 0.00000000E+000
-1.18970000E+001 -1.72300000E+000 0.00000000E+000
2.97460000E+000 -1.00000000E+001 0.00000000E+000
-7.72640000E+000 -5.44860000E+000 0.00000000E+000
-1.06310000E+001 -3.47470000E+000 0.00000000E+000
9.49180000E-001 -1.00000000E+001 0.00000000E+000
-1.54710000E+001 0.00000000E+000 0.00000000E+000
-4.77050000E+000 -8.02110000E+000 0.00000000E+000
-9.70970000E+000 -5.23440000E+000 0.00000000E+000
-1.07620000E+000 -1.00000000E+001 0.00000000E+000
-1.42680000E+001 -1.68530000E+000 0.00000000E+000
-1.25070000E+001 -3.31520000E+000 0.00000000E+000
-6.56660000E+000 -7.77900000E+000 0.00000000E+000
-3.10160000E+000 -1.00000000E+001 0.00000000E+000
-1.17000000E+001 -5.10700000E+000 0.00000000E+000
-1.74240000E+001 0.00000000E+000 0.00000000E+000
-8.81870000E+000 -7.65770000E+000 0.00000000E+000
-1.64480000E+001 -1.73210000E+000 0.00000000E+000
-5.12710000E+000 -1.00000000E+001 0.00000000E+000
-1.52670000E+001 -3.29220000E+000 0.00000000E+000
-1.08890000E+001 -6.97060000E+000 0.00000000E+000
-1.35520000E+001 -4.97920000E+000 0.00000000E+000
-1.92270000E+001 0.00000000E+000 0.00000000E+000
-7.15250000E+000 -1.00000000E+001 0.00000000E+000
-1.83260000E+001 -1.73210000E+000 0.00000000E+000
-1.27360000E+001 -6.79090000E+000 0.00000000E+000
-1.02280000E+001 -8.76580000E+000 0.00000000E+000
-1.72210000E+001 -3.38040000E+000 0.00000000E+000
-1.55920000E+001 -4.88780000E+000 0.00000000E+000
-9.17790000E+000 -1.00000000E+001 0.00000000E+000
-2.08820000E+001 0.00000000E+000 0.00000000E+000
-1.21420000E+001 -8.26790000E+000 0.00000000E+000
-1.46760000E+001 -6.61790000E+000 0.00000000E+000
-2.00550000E+001 -1.71810000E+000 0.00000000E+000
-1.75740000E+001 -4.86730000E+000 0.00000000E+000
-1.11860000E+001 -1.00000000E+001 0.00000000E+000
-1.92040000E+001 -3.45710000E+000 0.00000000E+000
-2.23910000E+001 0.00000000E+000 0.00000000E+000
-1.40050000E+001 -8.26790000E+000 0.00000000E+000
-1.66560000E+001 -6.56010000E+000 0.00000000E+000
-2.16360000E+001 -1.56770000E+000 0.00000000E+000
-1.30980000E+001 -1.00000000E+001 0.00000000E+000
-2.37620000E+001 0.00000000E+000 0.00000000E+000
[...]
POINT_DATA      250
SCALARS Ux float
LOOKUP_TABLE default
1.00000000E+000
1.59433326E+000
1.00000000E+000
2.83121881E+000
1.00000000E+000
3.25841545E+000
4.50059105E+000
1.00000000E+000
4.91719892E+000
3.33666258E+000
6.65336147E+000
1.00000000E+000
6.37803330E+000
5.02176042E+000
8.87814274E+000
1.00000000E+000
8.77138259E+000
8.09988667E+000
5.94374730E+000
1.11987450E+001
1.00000000E+000
1.07218033E+001
1.02239995E+001
8.73421329E+000
1.29358614E+001
1.32155661E+001
1.27334253E+001
1.00000000E+000
1.28118960E+001
1.07463508E+001
1.42350152E+001
1.48726997E+001
1.33992224E+001
1.45435243E+001
1.46881072E+001
1.47980676E+001
1.34633490E+001
1.52597840E+001
1.57451973E+001
2.15587144E+001
1.57714146E+001
1.55896164E+001
1.97282480E+001
1.69528487E+001
1.66368425E+001
1.57892161E+001
1.90231534E+001
1.76939582E+001
2.42546672E+001
1.64035644E+001
2.62440000E+001
1.98242848E+001
2.28569047E+001
1.71451299E+001
1.97609298E+001
1.82396710E+001
2.28290506E+001
1.61425256E+001
1.63625017E+001
2.19744484E+001
1.67586799E+001
2.82545328E+001
2.99193184E+001
2.68073330E+001
1.99061002E+001
1.76215754E+001
2.57181436E+001
2.19969758E+001
1.89386142E+001
2.48948340E+001
3.13856225E+001
3.01837649E+001
3.29235163E+001
2.07743296E+001
2.41068834E+001
2.89759608E+001
2.79054526E+001
2.30499516E+001
2.68614433E+001
3.40799168E+001
3.29287854E+001
3.18836744E+001
3.54096580E+001
2.56604645E+001
3.07573964E+001
2.96249222E+001
3.52689782E+001
3.62576452E+001
2.83761391E+001
3.43956370E+001
3.33288467E+001
3.74466422E+001
3.22255126E+001
3.10236108E+001
3.72764766E+001
3.65136419E+001
3.80344867E+001
3.55571832E+001
3.45536718E+001
3.90918845E+001
3.34646396E+001
3.79500240E+001
3.87727824E+001
3.95180564E+001
3.74112955E+001
3.65400049E+001
3.56058494E+001
4.03834954E+001
3.93425398E+001
3.87886536E+001
4.00534238E+001
3.80658012E+001
4.06892884E+001
3.73831005E+001
4.13702084E+001
4.03698483E+001
3.97990332E+001
3.91559941E+001
4.10173292E+001
4.15285047E+001
3.87344945E+001
4.20985402E+001
4.11178099E+001
3.98415440E+001
4.04660898E+001
4.17225076E+001
3.95582345E+001
4.21897074E+001
4.26129266E+001
4.09414486E+001
4.01121084E+001
4.16183969E+001
3.94879900E+001
4.22219863E+001
4.26426920E+001
3.76791112E+001
4.03928058E+001
4.29549289E+001
4.12024182E+001
4.20039039E+001
4.25742697E+001
3.91584624E+001
4.29414045E+001
3.54630216E+001
3.73403203E+001
4.01491551E+001
4.31807738E+001
4.14990938E+001
4.22313594E+001
3.28075530E+001
4.28656931E+001
3.81663962E+001
3.51883903E+001
4.06472023E+001
3.61849295E+001
4.23284092E+001
4.31965415E+001
3.88948134E+001
2.97060082E+001
4.16975606E+001
3.19544806E+001
4.30759708E+001
3.70659730E+001
3.36788438E+001
4.26485215E+001
2.61693149E+001
3.96975225E+001
3.48468710E+001
4.19139666E+001
2.82595430E+001
3.10617163E+001
3.82109765E+001
4.08712658E+001
3.22303438E+001
2.24636935E+001
3.59135046E+001
2.43795230E+001
3.94508551E+001
2.65582852E+001
3.33499306E+001
2.94325156E+001
1.86596557E+001
3.76695756E+001
2.06356036E+001
3.07123538E+001
3.42057092E+001
2.29111469E+001
2.59768229E+001
3.54902188E+001
1.47777596E+001
3.15968006E+001
2.75792553E+001
1.68517471E+001
2.22301835E+001
3.29464591E+001
1.88405049E+001
1.07146413E+001
2.87004450E+001
2.40016257E+001
1.30495465E+001
3.01532639E+001
5.93379656E+000
1.48577504E+001
2.56332688E+001
9.23412176E+000
1.72495800E+001
2.06649580E+001
2.71613470E+001
2.46469511E-014
1.13519179E+001
2.24433782E+001
1.29031775E+001
-4.60742555E-015
2.40204526E+001
2.80544940E+000
1.91558127E+001
6.82312913E+000
1.53058073E+001
2.07651546E+001
-1.57651669E-014
8.71479928E+000
1.58085348E+001
1.63715436E+000
1.74225895E+001
-3.55271368E-015
3.88814608E+000
1.23876792E+001
8.55245563E+000
1.39833448E+001
1.22052360E+000
3.55271368E-015
8.42114755E+000
1.03697319E+001
3.61833343E+000
-1.42108547E-014
4.96937069E+000
6.23402291E+000
1.20082454E+000
8.88178420E-015
2.24958576E+000
3.55271368E-015
1.23585991E+000
3.55271368E-015
1.22603091E+000
-1.06581410E-014
0.00000000E+000
0.00000000E+000
3.55271368E-015
0.00000000E+000
-0.00000000E+000
