# vtk DataFile Version 1.0
ECM-CELL DIFFUSION-MECHANICS
ASCII

DATASET UNSTRUCTURED_GRID
POINTS    13270 float
1.50000000E+001 3.00000000E+001 0.00000000E+000
1.47500000E+001 3.00000000E+001 0.00000000E+000
1.48210000E+001 2.98210000E+001 0.00000000E+000
1.45710000E+001 2.98210000E+001 0.00000000E+000
1.45000000E+001 3.00000000E+001 0.00000000E+000
1.46430000E+001 2.96430000E+001 0.00000000E+000
1.43350000E+001 2.98300000E+001 0.00000000E+000
1.44060000E+001 2.96520000E+001 0.00000000E+000
1.42500000E+001 3.00000000E+001 0.00000000E+000
1.44640000E+001 2.94640000E+001 0.00000000E+000
1.41690000E+001 2.96610000E+001 0.00000000E+000
1.40850000E+001 2.98300000E+001 0.00000000E+000
1.42280000E+001 2.94730000E+001 0.00000000E+000
1.40000000E+001 3.00000000E+001 0.00000000E+000
1.42860000E+001 2.92860000E+001 0.00000000E+000
1.39900000E+001 2.95890000E+001 0.00000000E+000
1.39050000E+001 2.97580000E+001 0.00000000E+000
1.40480000E+001 2.94010000E+001 0.00000000E+000
1.37500000E+001 3.00000000E+001 0.00000000E+000
1.41070000E+001 2.91070000E+001 0.00000000E+000
1.38110000E+001 2.95170000E+001 0.00000000E+000
1.36550000E+001 2.97580000E+001 0.00000000E+000
1.38700000E+001 2.92230000E+001 0.00000000E+000
1.36760000E+001 2.93450000E+001 0.00000000E+000
1.35000000E+001 3.00000000E+001 0.00000000E+000
1.39290000E+001 2.89290000E+001 0.00000000E+000
1.35300000E+001 2.95420000E+001 0.00000000E+000
1.37350000E+001 2.90510000E+001 0.00000000E+000
1.33750000E+001 2.97830000E+001 0.00000000E+000
1.35410000E+001 2.91740000E+001 0.00000000E+000
1.33950000E+001 2.93710000E+001 0.00000000E+000
1.32500000E+001 3.00000000E+001 0.00000000E+000
1.37500000E+001 2.87500000E+001 0.00000000E+000
1.32500000E+001 2.95670000E+001 0.00000000E+000
1.35560000E+001 2.88730000E+001 0.00000000E+000
1.31250000E+001 2.97830000E+001 0.00000000E+000
1.33000000E+001 2.91470000E+001 0.00000000E+000
1.31550000E+001 2.93430000E+001 0.00000000E+000
1.30000000E+001 3.00000000E+001 0.00000000E+000
1.35710000E+001 2.85710000E+001 0.00000000E+000
1.33160000E+001 2.88450000E+001 0.00000000E+000
1.30000000E+001 2.95670000E+001 0.00000000E+000
1.30600000E+001 2.91190000E+001 0.00000000E+000
1.28750000E+001 2.97830000E+001 0.00000000E+000
1.29050000E+001 2.93430000E+001 0.00000000E+000
1.27500000E+001 3.00000000E+001 0.00000000E+000
1.32100000E+001 2.86200000E+001 0.00000000E+000
1.33930000E+001 2.83930000E+001 0.00000000E+000
1.27500000E+001 2.95670000E+001 0.00000000E+000
1.29550000E+001 2.88940000E+001 0.00000000E+000
1.26250000E+001 2.97830000E+001 0.00000000E+000
1.27800000E+001 2.91270000E+001 0.00000000E+000
1.26250000E+001 2.93500000E+001 0.00000000E+000
1.25000000E+001 3.00000000E+001 0.00000000E+000
1.30320000E+001 2.84410000E+001 0.00000000E+000
1.32140000E+001 2.82140000E+001 0.00000000E+000
1.28490000E+001 2.86680000E+001 0.00000000E+000
1.25000000E+001 2.95670000E+001 0.00000000E+000
1.26750000E+001 2.89010000E+001 0.00000000E+000
1.23750000E+001 2.97830000E+001 0.00000000E+000
1.25000000E+001 2.91340000E+001 0.00000000E+000
1.23750000E+001 2.93500000E+001 0.00000000E+000
1.22500000E+001 3.00000000E+001 0.00000000E+000
1.28570000E+001 2.82410000E+001 0.00000000E+000
1.30360000E+001 2.80360000E+001 0.00000000E+000
1.25500000E+001 2.86840000E+001 0.00000000E+000
1.22500000E+001 2.95670000E+001 0.00000000E+000
1.26750000E+001 2.84680000E+001 0.00000000E+000
1.23750000E+001 2.89170000E+001 0.00000000E+000
1.21250000E+001 2.97830000E+001 0.00000000E+000
1.22500000E+001 2.91340000E+001 0.00000000E+000
1.21250000E+001 2.93500000E+001 0.00000000E+000
1.20000000E+001 3.00000000E+001 0.00000000E+000
1.26790000E+001 2.80630000E+001 0.00000000E+000
1.28570000E+001 2.78570000E+001 0.00000000E+000
1.23750000E+001 2.84840000E+001 0.00000000E+000
1.20000000E+001 2.95670000E+001 0.00000000E+000
1.25000000E+001 2.82680000E+001 0.00000000E+000
1.22500000E+001 2.87010000E+001 0.00000000E+000
1.21250000E+001 2.89170000E+001 0.00000000E+000
1.20000000E+001 2.91340000E+001 0.00000000E+000
1.18750000E+001 2.97830000E+001 0.00000000E+000
1.18750000E+001 2.93500000E+001 0.00000000E+000
1.17500000E+001 3.00000000E+001 0.00000000E+000
1.21250000E+001 2.84840000E+001 0.00000000E+000
1.22500000E+001 2.82680000E+001 0.00000000E+000
1.25540000E+001 2.78460000E+001 0.00000000E+000
1.20000000E+001 2.87010000E+001 0.00000000E+000
1.23750000E+001 2.80510000E+001 0.00000000E+000
1.17500000E+001 2.95670000E+001 0.00000000E+000
1.26790000E+001 2.76790000E+001 0.00000000E+000
1.18750000E+001 2.89170000E+001 0.00000000E+000
1.17500000E+001 2.91340000E+001 0.00000000E+000
1.16250000E+001 2.97830000E+001 0.00000000E+000
1.16250000E+001 2.93500000E+001 0.00000000E+000
1.20000000E+001 2.82680000E+001 0.00000000E+000
1.18750000E+001 2.84840000E+001 0.00000000E+000
1.21250000E+001 2.80510000E+001 0.00000000E+000
1.15000000E+001 3.00000000E+001 0.00000000E+000
1.17500000E+001 2.87010000E+001 0.00000000E+000
1.22500000E+001 2.78350000E+001 0.00000000E+000
1.23750000E+001 2.76670000E+001 0.00000000E+000
1.15000000E+001 2.95670000E+001 0.00000000E+000
1.25000000E+001 2.75000000E+001 0.00000000E+000
1.16250000E+001 2.89170000E+001 0.00000000E+000
1.15000000E+001 2.91340000E+001 0.00000000E+000
1.13750000E+001 2.97830000E+001 0.00000000E+000
1.17500000E+001 2.82680000E+001 0.00000000E+000
1.13750000E+001 2.93500000E+001 0.00000000E+000
1.18870000E+001 2.80300000E+001 0.00000000E+000
1.16250000E+001 2.84840000E+001 0.00000000E+000
1.20120000E+001 2.78130000E+001 0.00000000E+000
1.15000000E+001 2.87010000E+001 0.00000000E+000
1.12500000E+001 3.00000000E+001 0.00000000E+000
1.21960000E+001 2.74890000E+001 0.00000000E+000
1.12500000E+001 2.95670000E+001 0.00000000E+000
1.13750000E+001 2.89170000E+001 0.00000000E+000
1.23210000E+001 2.73210000E+001 0.00000000E+000
1.12500000E+001 2.91340000E+001 0.00000000E+000
1.11250000E+001 2.97830000E+001 0.00000000E+000
1.16370000E+001 2.80300000E+001 0.00000000E+000
1.15000000E+001 2.82680000E+001 0.00000000E+000
1.17740000E+001 2.77920000E+001 0.00000000E+000
1.13750000E+001 2.84840000E+001 0.00000000E+000
1.11250000E+001 2.93500000E+001 0.00000000E+000
1.19580000E+001 2.74670000E+001 0.00000000E+000
1.12500000E+001 2.87010000E+001 0.00000000E+000
1.10000000E+001 3.00000000E+001 0.00000000E+000
1.10000000E+001 2.95670000E+001 0.00000000E+000
1.11250000E+001 2.89170000E+001 0.00000000E+000
1.21430000E+001 2.71430000E+001 0.00000000E+000
1.10000000E+001 2.91340000E+001 0.00000000E+000
1.13750000E+001 2.80510000E+001 0.00000000E+000
1.15120000E+001 2.78130000E+001 0.00000000E+000
1.08750000E+001 2.97830000E+001 0.00000000E+000
1.12500000E+001 2.82680000E+001 0.00000000E+000
1.16540000E+001 2.75560000E+001 0.00000000E+000
1.11250000E+001 2.84840000E+001 0.00000000E+000
1.08750000E+001 2.93500000E+001 0.00000000E+000
1.18380000E+001 2.72320000E+001 0.00000000E+000
1.10000000E+001 2.87010000E+001 0.00000000E+000
1.07500000E+001 3.00000000E+001 0.00000000E+000
1.08750000E+001 2.89170000E+001 0.00000000E+000
1.07500000E+001 2.95670000E+001 0.00000000E+000
1.19640000E+001 2.69640000E+001 0.00000000E+000
1.12500000E+001 2.78350000E+001 0.00000000E+000
1.07500000E+001 2.91340000E+001 0.00000000E+000
1.11250000E+001 2.80510000E+001 0.00000000E+000
1.13920000E+001 2.75780000E+001 0.00000000E+000
1.10000000E+001 2.82680000E+001 0.00000000E+000
1.06250000E+001 2.97830000E+001 0.00000000E+000
1.15340000E+001 2.73210000E+001 0.00000000E+000
1.08750000E+001 2.84840000E+001 0.00000000E+000
1.06250000E+001 2.93500000E+001 0.00000000E+000
1.07500000E+001 2.87010000E+001 0.00000000E+000
1.16600000E+001 2.70530000E+001 0.00000000E+000
1.05000000E+001 3.00000000E+001 0.00000000E+000
1.06250000E+001 2.89170000E+001 0.00000000E+000
1.05000000E+001 2.95670000E+001 0.00000000E+000
1.17860000E+001 2.67860000E+001 0.00000000E+000
1.11250000E+001 2.76180000E+001 0.00000000E+000
1.10000000E+001 2.78350000E+001 0.00000000E+000
1.08750000E+001 2.80510000E+001 0.00000000E+000
1.12670000E+001 2.73610000E+001 0.00000000E+000
1.05000000E+001 2.91340000E+001 0.00000000E+000
1.07500000E+001 2.82680000E+001 0.00000000E+000
1.13920000E+001 2.71450000E+001 0.00000000E+000
1.06250000E+001 2.84840000E+001 0.00000000E+000
1.03750000E+001 2.97830000E+001 0.00000000E+000
1.03750000E+001 2.93500000E+001 0.00000000E+000
1.15180000E+001 2.68770000E+001 0.00000000E+000
1.05000000E+001 2.87010000E+001 0.00000000E+000
1.02500000E+001 3.00000000E+001 0.00000000E+000
1.03750000E+001 2.89170000E+001 0.00000000E+000
1.08750000E+001 2.76180000E+001 0.00000000E+000
1.02500000E+001 2.95670000E+001 0.00000000E+000
1.10000000E+001 2.74020000E+001 0.00000000E+000
1.07500000E+001 2.78350000E+001 0.00000000E+000
1.11250000E+001 2.71850000E+001 0.00000000E+000
1.06250000E+001 2.80510000E+001 0.00000000E+000
1.16070000E+001 2.66070000E+001 0.00000000E+000
1.12500000E+001 2.69690000E+001 0.00000000E+000
1.05000000E+001 2.82680000E+001 0.00000000E+000
1.02500000E+001 2.91340000E+001 0.00000000E+000
1.03750000E+001 2.84840000E+001 0.00000000E+000
1.01250000E+001 2.97830000E+001 0.00000000E+000
1.01250000E+001 2.93500000E+001 0.00000000E+000
1.02500000E+001 2.87010000E+001 0.00000000E+000
1.13390000E+001 2.66990000E+001 0.00000000E+000
1.07500000E+001 2.74020000E+001 0.00000000E+000
1.06250000E+001 2.76180000E+001 0.00000000E+000
1.08750000E+001 2.71850000E+001 0.00000000E+000
1.01250000E+001 2.89170000E+001 0.00000000E+000
1.05000000E+001 2.78350000E+001 0.00000000E+000
1.00000000E+001 3.00000000E+001 0.00000000E+000
1.10000000E+001 2.69690000E+001 0.00000000E+000
1.00000000E+001 2.95670000E+001 0.00000000E+000
1.03750000E+001 2.80510000E+001 0.00000000E+000
1.11300000E+001 2.67810000E+001 0.00000000E+000
1.14290000E+001 2.64290000E+001 0.00000000E+000
1.02500000E+001 2.82680000E+001 0.00000000E+000
1.00000000E+001 2.91340000E+001 0.00000000E+000
1.01250000E+001 2.84840000E+001 0.00000000E+000
9.87500000E+000 2.97830000E+001 0.00000000E+000
1.12200000E+001 2.65110000E+001 0.00000000E+000
9.87500000E+000 2.93500000E+001 0.00000000E+000
[...]
POINT_DATA    13270
SCALARS Ux float
LOOKUP_TABLE default
1.00000000E+000
1.01134273E+000
1.00000000E+000
1.03129871E+000
1.04657175E+000
1.00000000E+000
1.07478779E+000
1.04119483E+000
1.09785437E+000
1.00000000E+000
1.09872160E+000
1.13836514E+000
1.05736136E+000
1.16596299E+000
1.00000000E+000
1.14026905E+000
1.18838303E+000
1.09149033E+000
1.24745071E+000
1.00000000E+000
1.18779040E+000
1.27645411E+000
1.11179352E+000
1.20854549E+000
1.34403956E+000
1.00000000E+000
1.29933596E+000
1.11109074E+000
1.39314401E+000
1.22178391E+000
1.33054902E+000
1.45420531E+000
1.00000000E+000
1.42606809E+000
1.12893530E+000
1.50948175E+000
1.32103369E+000
1.43770481E+000
1.57662230E+000
1.00000000E+000
1.22608844E+000
1.54919217E+000
1.43166527E+000
1.63813857E+000
1.56636436E+000
1.71125180E+000
1.18999394E+000
1.00000000E+000
1.68427679E+000
1.42560657E+000
1.77867720E+000
1.58569740E+000
1.72580315E+000
1.85727217E+000
1.20971641E+000
1.00000000E+000
1.40247594E+000
1.83136016E+000
1.58623008E+000
1.93061010E+000
1.75298356E+000
1.87904291E+000
2.01481038E+000
1.21069846E+000
1.00000000E+000
1.58625258E+000
1.98908789E+000
1.42553762E+000
1.77607799E+000
2.09346771E+000
1.91295803E+000
2.04294678E+000
2.18267721E+000
1.22822031E+000
1.00000000E+000
1.62268958E+000
2.15799413E+000
1.44261207E+000
1.78588840E+000
1.94240062E+000
2.08293317E+000
2.26694664E+000
2.21752213E+000
2.36147183E+000
1.79156337E+000
1.60902006E+000
1.18303915E+000
1.95886525E+000
1.41828195E+000
2.33671836E+000
1.00000000E+000
2.11872136E+000
2.26375029E+000
2.45058020E+000
2.40211412E+000
1.78492393E+000
1.97126470E+000
1.59188586E+000
2.54972630E+000
2.14147521E+000
1.38217015E+000
1.19630005E+000
2.52610642E+000
1.00000000E+000
2.30547002E+000
2.45390086E+000
2.64419161E+000
1.97143947E+000
2.59668161E+000
1.75518768E+000
2.16040209E+000
1.54099979E+000
2.33464432E+000
2.74838940E+000
1.20933935E+000
2.72451650E+000
2.50168911E+000
1.00000000E+000
2.65442962E+000
2.84728115E+000
1.94839022E+000
2.16708716E+000
1.70951454E+000
2.35975853E+000
2.80069441E+000
1.37233183E+000
2.53669892E+000
2.95573572E+000
2.93310288E+000
2.70769957E+000
1.00000000E+000
2.86356522E+000
2.17042981E+000
1.93143939E+000
3.05975146E+000
2.37305969E+000
1.66695224E+000
2.56806098E+000
3.01404245E+000
1.30088323E+000
2.74885358E+000
3.17301152E+000
2.92264818E+000
3.14997205E+000
1.00000000E+000
2.16217718E+000
3.08262396E+000
2.38268247E+000
1.89733531E+000
2.58741460E+000
3.28107030E+000
1.60952456E+000
2.78595922E+000
3.23627772E+000
2.96921501E+000
1.31678127E+000
3.39823578E+000
3.14678608E+000
3.37655468E+000
1.00000000E+000
2.15085516E+000
2.38112047E+000
2.60341741E+000
1.86474108E+000
3.30959261E+000
2.81160516E+000
1.60906963E+000
3.01232755E+000
3.51119553E+000
3.46724210E+000
1.29870762E+000
3.19926363E+000
3.63292760E+000
3.37934342E+000
2.37613466E+000
3.61070551E+000
2.12845368E+000
2.60805953E+000
1.87378397E+000
2.83357342E+000
1.00000000E+000
1.60297161E+000
3.04365127E+000
3.54604519E+000
3.24775616E+000
3.74956103E+000
3.70653945E+000
3.43687900E+000
1.31432634E+000
2.36040800E+000
2.60957873E+000
2.10284252E+000
3.62052290E+000
2.84465043E+000
3.87484753E+000
1.83098669E+000
3.85411541E+000
3.07181447E+000
1.56840750E+000
1.00000000E+000
3.28518622E+000
3.78972319E+000
3.49118411E+000
3.99616072E+000
1.26162478E+000
3.95397591E+000
3.68377376E+000
2.60027008E+000
2.34148722E+000
2.85237510E+000
2.06681404E+000
3.08884557E+000
1.80253143E+000
3.86958912E+000
1.52573090E+000
4.12577459E+000
3.31903898E+000
4.10438039E+000
3.53400653E+000
1.00000000E+000
4.04244543E+000
3.74316246E+000
4.25039373E+000
1.27485732E+000
3.93759049E+000
2.58804184E+000
2.84969046E+000
4.20917619E+000
2.31224369E+000
3.10297242E+000
1.99948288E+000
1.71872858E+000
3.34238861E+000
4.12671988E+000
3.57390983E+000
4.38320046E+000
4.36344359E+000
3.79194142E+000
1.00000000E+000
4.30169550E+000
4.00262578E+000
1.46714774E+000
2.84397244E+000
4.51227265E+000
2.25097712E+000
2.56545391E+000
3.10657112E+000
1.91949413E+000
3.36255419E+000
4.20026578E+000
4.47192168E+000
3.60301992E+000
3.83731713E+000
4.39117081E+000
4.64916039E+000
4.05655754E+000
4.62862799E+000
1.36270343E+000
1.00000000E+000
4.56953432E+000
4.27012476E+000
2.82828029E+000
3.10749653E+000
1.83712364E+000
2.54023610E+000
3.37271439E+000
2.20737967E+000
3.62950171E+000
4.78116142E+000
4.46918625E+000
4.74183018E+000
3.87265221E+000
4.10786504E+000
4.66311651E+000
4.92086035E+000
4.32988676E+000
4.90213000E+000
1.37756406E+000
1.74273589E+000
1.00000000E+000
4.84316878E+000
3.09845770E+000
2.13182130E+000
2.80987055E+000
3.38007719E+000
4.54454066E+000
2.50512718E+000
3.64583951E+000
3.90504431E+000
5.05707597E+000
4.74651784E+000
4.14880446E+000
5.01866826E+000
4.38648280E+000
4.94176773E+000
4.60924235E+000
5.20059661E+000
5.18097958E+000
3.08694627E+000
3.37786688E+000
2.78183997E+000
3.65981887E+000
2.07572212E+000
1.29592754E+000
1.67990982E+000
2.46753729E+000
5.12490845E+000
3.92791127E+000
4.82645456E+000
1.00000000E+000
4.18745074E+000
5.33934515E+000
4.43357548E+000
5.02936767E+000
5.30202322E+000
4.67166624E+000
5.22731459E+000
4.89687256E+000
3.37322529E+000
3.06593915E+000
5.48526742E+000
3.66425593E+000
2.75129286E+000
5.46763533E+000
3.94829918E+000
2.42013768E+000
4.21643750E+000
2.02184020E+000
1.60741520E+000
5.11465309E+000
1.30757938E+000
5.41165963E+000
1.00000000E+000
4.47804057E+000
4.72423459E+000
5.62797508E+000
5.32014384E+000
5.59165558E+000
4.96442024E+000
3.35934623E+000
3.66657269E+000
5.51889301E+000
3.04258079E+000
3.95961292E+000
5.18980829E+000
2.71128340E+000
4.24344934E+000
5.77744217E+000
5.75880965E+000
2.37027935E+000
4.51355137E+000
1.95292985E+000
5.40977310E+000
5.70599435E+000
4.77490835E+000
1.31933125E+000
1.00000000E+000
5.02308351E+000
5.61564540E+000
5.92226028E+000
5.88710263E+000
5.26308427E+000
3.65989097E+000
3.34339042E+000
3.96891780E+000
3.01012630E+000
4.26148060E+000
5.81672405E+000
2.66901135E+000
4.54699587E+000
5.49053260E+000
2.31078067E+000
6.07368558E+000
4.81651465E+000
6.05723908E+000
1.67358672E+000
5.07950572E+000
5.71047122E+000
6.00449041E+000
1.00000000E+000
5.32710504E+000
5.91854175E+000
6.22218625E+000
3.65129986E+000
3.96952300E+000
5.56876934E+000
3.31843885E+000
6.18812625E+000
4.27784159E+000
2.97541955E+000
4.57198364E+000
2.61748593E+000
4.85660985E+000
6.11984456E+000
5.79575931E+000
2.17639721E+000
5.12764630E+000
6.37685844E+000
1.50605362E+000
6.35929083E+000
5.38969409E+000
6.01746037E+000
6.31000235E+000
1.00000000E+000
5.63882732E+000
3.96859148E+000
3.63422067E+000
4.28588008E+000
6.22529152E+000
3.29176622E+000
6.52701469E+000
4.59549673E+000
5.87961727E+000
2.93192596E+000
4.88841733E+000
6.49419865E+000
2.48956006E+000
5.17422038E+000
6.42851865E+000
6.10823116E+000
2.02466541E+000
5.44391489E+000
6.68316385E+000
1.52513646E+000
6.66800058E+000
5.70709259E+000
6.32923948E+000
6.61874898E+000
5.95490310E+000
1.00000000E+000
3.95924663E+000
4.29249519E+000
3.61535891E+000
4.61099524E+000
3.25629490E+000
4.91909650E+000
6.53885046E+000
2.88650502E+000
6.83670216E+000
6.19686880E+000
5.21307725E+000
6.80508908E+000
2.42351171E+000
5.49717122E+000
6.42430690E+000
2.02456492E+000
5.76785739E+000
6.74166652E+000
6.99577710E+000
6.02928004E+000
1.50499074E+000
6.97936122E+000
6.64661247E+000
4.29116079E+000
3.94897996E+000
4.62574698E+000
6.93389234E+000
6.27811870E+000
3.58825870E+000
4.94223972E+000
1.00000000E+000
3.21959215E+000
5.25108625E+000
2.83209428E+000
6.85530230E+000
5.54298554E+000
6.51843906E+000
7.15047983E+000
2.43563615E+000
5.82763126E+000
7.12019445E+000
2.02129553E+000
6.09608403E+000
6.74702021E+000
7.05960367E+000
6.35806653E+000
7.31051097E+000
1.52366234E+000
7.29673297E+000
6.96790229E+000
4.58815899E+000
4.92437722E+000
5.28183383E+000
7.25126089E+000
6.60475352E+000
5.58830566E+000
1.00000000E+000
4.29647311E+000
2.77493026E+000
5.88060690E+000
3.93299044E+000
7.17791891E+000
3.55476200E+000
6.84571491E+000
2.36074077E+000
7.46826986E+000
6.16252693E+000
3.16224883E+000
7.43929589E+000
1.98982529E+000
6.43138265E+000
7.07233532E+000
7.38112358E+000
6.69073096E+000
1.47105331E+000
7.63088183E+000
5.27332453E+000
4.89398271E+000
7.61570553E+000
5.62702307E+000
7.29401240E+000
6.93789380E+000
5.93368171E+000
7.57435296E+000
4.60451976E+000
2.71010025E+000
6.22240331E+000
1.00000000E+000
7.50237414E+000
7.17636764E+000
2.33911980E+000
3.11393987E+000
6.50429089E+000
4.29219790E+000
7.78927612E+000
3.91132586E+000
7.76171032E+000
1.95331235E+000
3.50840689E+000
6.76999526E+000
7.40361226E+000
5.23625772E+000
5.60918897E+000
7.70659731E+000
7.02929768E+000
1.48913483E+000
4.99836732E+000
7.95228469E+000
2.79814540E+000
7.93999189E+000
7.62308138E+000
7.27339995E+000
5.97135205E+000
7.89857626E+000
2.41805598E+000
3.21017674E+000
4.69635373E+000
6.57127347E+000
6.27871304E+000
1.00000000E+000
7.83228904E+000
7.51193650E+000
6.84956224E+000
4.37822595E+000
5.58251967E+000
8.11338396E+000
3.98194524E+000
2.01506599E+000
8.08723351E+000
7.11504258E+000
7.73637940E+000
5.35142168E+000
2.88726898E+000
8.03469019E+000
7.37071665E+000
3.63060927E+000
5.96015199E+000
1.53469931E+000
5.10294606E+000
8.27860550E+000
7.95611340E+000
8.26475184E+000
7.61469426E+000
2.49579966E+000
6.92359253E+000
4.79555043E+000
8.22779646E+000
6.63787562E+000
6.32407240E+000
7.20107265E+000
1.00000000E+000
7.84984082E+000
8.16289443E+000
3.31985726E+000
4.46506833E+000
5.75307629E+000
8.43977414E+000
2.07829704E+000
7.46228357E+000
8.41510387E+000
5.51578349E+000
8.07436135E+000
4.12374930E+000
2.93181055E+000
8.36582847E+000
7.71721637E+000
6.13988674E+000
5.21249032E+000
6.99894252E+000
1.55435140E+000
6.69876403E+000
8.60479725E+000
8.29106737E+000
3.75723794E+000
8.59408055E+000
7.95716184E+000
7.28241585E+000
2.52231674E+000
4.89364591E+000
8.55697353E+000
7.55487825E+000
8.19176745E+000
1.00000000E+000
3.37911295E+000
8.49819576E+000
4.55687900E+000
5.92841222E+000
6.51288481E+000
8.76829611E+000
7.81513943E+000
2.09607894E+000
8.74513289E+000
5.63810137E+000
8.41261362E+000
4.20222595E+000
7.06986976E+000
2.97490310E+000
8.69855793E+000
8.06541365E+000
5.32486072E+000
7.36534248E+000
1.55006725E+000
8.93514405E+000
8.62904171E+000
3.82878677E+000
8.30461271E+000
6.31956014E+000
8.92268539E+000
7.64301394E+000
5.00096546E+000
2.55786834E+000
8.89037203E+000
6.89946452E+000
7.91397501E+000
8.53490117E+000
3.43520359E+000
8.83295294E+000
6.06135513E+000
4.65097804E+000
1.00000000E+000
8.16888211E+000
9.09811274E+000
2.11346548E+000
5.76090999E+000
9.07648828E+000
8.75526772E+000
6.70560318E+000
4.29003951E+000
8.41774157E+000
3.02251181E+000
9.03335511E+000
5.44300318E+000
7.51102301E+000
1.57303853E+000
6.46344715E+000
7.79975893E+000
8.96783602E+000
8.00920504E+000
3.90198701E+000
9.26413759E+000
8.65191980E+000
9.25507230E+000
5.10739451E+000
2.58756805E+000
7.33057994E+000
9.22248280E+000
8.27413927E+000
8.88105987E+000
6.19724414E+000
3.50090393E+000
4.75276044E+000
9.17159103E+000
1.00000000E+000
8.52739538E+000
9.42904160E+000
2.13325577E+000
5.89336809E+000
9.40899667E+000
7.15208513E+000
9.09687711E+000
4.37797561E+000
8.77052028E+000
3.07080260E+000
6.88788992E+000
9.36866470E+000
5.56481011E+000
8.17439325E+000
7.95642420E+000
8.37619007E+000
1.56864028E+000
9.30862895E+000
9.00332723E+000
3.98159578E+000
9.59648699E+000
5.22459183E+000
9.58547970E+000
6.63801111E+000
2.62645247E+000
9.55799906E+000
8.63860222E+000
7.78824185E+000
6.34058014E+000
9.22723250E+000
4.85713688E+000
3.56419027E+000
9.50837893E+000
8.88531503E+000
1.00000000E+000
6.02742271E+000
9.76023371E+000
2.15143560E+000
7.60044622E+000
9.74176863E+000
9.44202085E+000
4.47607680E+000
8.48854293E+000
8.27965755E+000
9.12633971E+000
7.34948837E+000
3.12466835E+000
5.69442540E+000
9.70500460E+000
7.07737717E+000
8.74755190E+000
9.35316581E+000
1.59405686E+000
9.64909509E+000
4.06587010E+000
9.92620975E+000
5.34298234E+000
6.79557976E+000
9.91885006E+000
8.19221712E+000
2.66064925E+000
9.00263853E+000
9.89092839E+000
6.49050087E+000
9.57534135E+000
4.96963592E+000
3.64020220E+000
9.84819328E+000
8.01990938E+000
9.24699951E+000
8.60008977E+000
1.00000000E+000
6.17317166E+000
7.77553003E+000
1.00914815E+001
2.17418648E+000
1.00746439E+001
8.86630981E+000
9.78473403E+000
7.51875201E+000
4.57507539E+000
9.48130382E+000
3.18105453E+000
5.83051881E+000
1.00407447E+001
8.52250971E+000
7.24463922E+000
9.11781265E+000
9.70616937E+000
1.59029291E+000
9.99047332E+000
4.15674408E+000
6.95626300E+000
5.47464328E+000
1.02584630E+001
1.02489434E+001
9.36965945E+000
2.70613179E+000
1.02264182E+001
8.43433847E+000
6.64840399E+000
9.92223939E+000
8.20468045E+000
5.08904713E+000
3.71393622E+000
1.01848006E+001
9.60651939E+000
7.95563034E+000
8.91358307E+000
6.32336340E+000
1.00000000E+000
1.04219309E+001
2.19661443E+000
7.69818698E+000
1.04066936E+001
1.01300781E+001
4.68808077E+000
9.83812799E+000
9.17818257E+000
5.97695972E+000
3.24563622E+000
7.41860914E+000
1.03764319E+001
8.84086443E+000
9.49117180E+000
1.00561226E+001
7.12894651E+000
4.25401986E+000
1.03303554E+001
5.60946784E+000
1.61801725E+000
1.05867847E+001
1.05811597E+001
9.73487762E+000
8.62737033E+000
2.74885206E+000
6.81425025E+000
1.05579867E+001
8.39423400E+000
1.02699199E+001
5.21815472E+000
9.96880854E+000
3.80233017E+000
8.14453508E+000
1.05235546E+001
6.48742141E+000
1.00000000E+000
9.23203635E+000
7.88292723E+000
1.07513579E+001
2.22410847E+000
1.04715612E+001
9.56166406E+000
4.80350480E+000
1.07377677E+001
1.01927997E+001
6.13204852E+000
7.60242111E+000
3.31330713E+000
9.04020875E+000
1.07103926E+001
9.86173578E+000
7.30759889E+000
1.04082837E+001
4.36132011E+000
5.76200595E+000
1.06700155E+001
1.61577658E+000
8.82545551E+000
1.09167976E+001
1.01019240E+001
1.09087789E+001
2.80403262E+000
6.99139828E+000
8.59341838E+000
1.08912548E+001
1.06151542E+001
5.35912922E+000
8.34139971E+000
1.03274080E+001
3.89077354E+000
1.08577165E+001
6.65768764E+000
8.08046122E+000
1.00000000E+000
9.68543532E+000
2.25431002E+000
1.10789103E+001
9.45194216E+000
1.08147500E+001
1.05481002E+001
4.93740109E+000
1.10669187E+001
9.99606108E+000
7.79597137E+000
6.29938061E+000
3.38999216E+000
1.10431884E+001
1.02351705E+001
9.25676838E+000
7.50109480E+000
1.07558691E+001
9.03295710E+000
5.91986843E+000
4.47872643E+000
1.10070084E+001
1.04658038E+001
1.65044778E+000
1.12415622E+001
8.79923866E+000
1.12376734E+001
7.18014258E+000
2.85541828E+000
1.12192537E+001
8.54805809E+000
1.09599647E+001
5.51178666E+000
1.06877173E+001
3.99900127E+000
1.11931347E+001
6.84555184E+000
8.28517344E+000
1.00000000E+000
1.01302789E+001
1.14043575E+001
9.91545394E+000
2.27408067E+000
1.08999197E+001
1.11526256E+001
5.07749578E+000
1.03769793E+001
8.00198863E+000
1.13940027E+001
6.48040140E+000
9.67896183E+000
3.47485137E+000
1.06037878E+001
9.47253420E+000
1.13731364E+001
7.70445274E+000
9.24832216E+000
1.11046735E+001
6.09834385E+000
4.61033630E+000
1.13426162E+001
1.08300916E+001
9.01672811E+000
1.63335905E+000
1.15671779E+001
7.38234167E+000
1.15606494E+001
2.91107336E+000
8.76521978E+000
1.15480902E+001
1.13011048E+001
5.67997447E+000
1.10426490E+001
4.10922578E+000
7.04383003E+000
1.15225725E+001
8.50436171E+000
1.04923636E+001
1.03174498E+001
1.07259701E+001
1.00998263E+001
1.00000000E+000
8.22034192E+000
1.17268567E+001
1.12510521E+001
9.90171552E+000
2.29509701E+000
1.14912770E+001
5.24048974E+000
6.67643833E+000
1.17180759E+001
9.69552139E+000
1.09737296E+001
3.56394722E+000
1.17007976E+001
7.92452259E+000
9.47378113E+000
1.14473611E+001
6.28768574E+000
4.75722272E+000
9.24339676E+000
1.16744081E+001
1.11897174E+001
7.60177906E+000
1.67355747E+000
1.18862382E+001
1.18840590E+001
8.99430272E+000
2.96950752E+000
1.18703192E+001
1.16405858E+001
5.86489537E+000
1.13982174E+001
1.08484834E+001
1.06856665E+001
7.26414320E+000
8.73448747E+000
1.05094430E+001
4.24009007E+000
1.18523828E+001
1.03284512E+001
1.11024474E+001
1.01313754E+001
8.45298904E+000
1.00000000E+000
1.15974210E+001
1.20461808E+001
5.41373319E+000
1.18231734E+001
2.35334412E+000
6.89344614E+000
9.92949606E+000
1.20389967E+001
1.13370119E+001
3.66836264E+000
9.71024941E+000
8.15790677E+000
1.20245160E+001
1.17902890E+001
9.48399106E+000
6.50328952E+000
1.15482855E+001
4.92160019E+000
1.20036462E+001
7.83699012E+000
1.69209069E+000
1.22053225E+001
9.23718628E+000
1.22002493E+001
1.10767070E+001
3.07774118E+000
1.09155652E+001
1.12530166E+001
1.21925376E+001
1.19752184E+001
1.17467654E+001
6.07304726E+000
8.98185553E+000
7.49885897E+000
4.38357166E+000
1.21748477E+001
1.14899080E+001
1.03715720E+001
1.08829825E+001
8.70293129E+000
1.01730761E+001
1.19417765E+001
1.00000000E+000
1.07099953E+001
5.61869349E+000
7.12926087E+000
1.23615037E+001
1.21549332E+001
2.42315387E+000
1.23558471E+001
1.17005480E+001
9.95852882E+000
3.80400713E+000
8.41262963E+000
1.23448363E+001
9.73619559E+000
1.21255954E+001
6.73663885E+000
1.19009026E+001
5.11177857E+000
1.23279654E+001
8.09396665E+000
1.13100167E+001
9.49503933E+000
1.14834509E+001
1.74647869E+000
1.25165748E+001
1.25160515E+001
1.16450098E+001
3.17929916E+000
1.25068434E+001
1.23069608E+001
1.20949361E+001
6.30504423E+000
9.24417059E+000
7.76035332E+000
4.57247036E+000
1.12881592E+001
1.06216283E+001
1.24968246E+001
1.18570313E+001
8.96998424E+000
1.04287785E+001
1.09575922E+001
1.22801652E+001
7.39188724E+000
1.00000000E+000
5.84117393E+000
1.24785384E+001
1.26726114E+001
2.49477919E+000
1.02195988E+001
1.20559059E+001
1.12629601E+001
1.26684842E+001
8.68511169E+000
3.96581502E+000
1.26601639E+001
1.16336398E+001
1.00035914E+001
1.17957848E+001
1.24601958E+001
7.00307503E+000
1.22510350E+001
5.32746837E+000
1.26485808E+001
8.37132053E+000
9.76875276E+000
1.76370744E+000
1.28270498E+001
1.20172100E+001
1.16191509E+001
1.28233747E+001
3.31774023E+000
9.52510250E+000
1.24344981E+001
1.28203183E+001
1.26327468E+001
6.56989818E+000
8.04327663E+000
1.08834265E+001
4.76957349E+000
1.22167628E+001
1.28101399E+001
1.06970592E+001
9.25978474E+000
1.11911262E+001
1.26152323E+001
1.19498993E+001
1.04943693E+001
6.10819596E+000
1.28011309E+001
1.00000000E+000
2.58353315E+000
1.14954575E+001
1.29787016E+001
1.24101603E+001
7.72279278E+000
1.29760356E+001
8.98246648E+000
4.14428416E+000
1.02864984E+001
1.29710131E+001
1.21725181E+001
1.27857367E+001
1.25939714E+001
1.18018665E+001
7.34077572E+000
1.00591595E+001
5.58663360E+000
8.67735894E+000
1.29632393E+001
1.23800384E+001
1.84466726E+000
1.31284660E+001
1.31295208E+001
3.45631927E+000
9.82574521E+000
1.27727062E+001
1.11571102E+001
1.29544434E+001
1.31246295E+001
8.40175664E+000
1.25733662E+001
5.02302249E+000
1.21338054E+001
1.09781359E+001
1.14602053E+001
1.31221450E+001
7.02982497E+000
1.29432288E+001
1.07848049E+001
1.23430631E+001
1.17386512E+001
2.67520184E+000
1.31142379E+001
1.27546594E+001
1.32795814E+001
1.00000000E+000
9.67514101E+000
1.32783542E+001
8.09751942E+000
1.05858576E+001
4.36932027E+000
1.32758801E+001
1.25501476E+001
6.57804972E+000
1.20430256E+001
1.31096791E+001
1.29330302E+001
1.03696619E+001
9.41550230E+000
9.00956496E+000
1.32730855E+001
1.27410001E+001
1.85847956E+000
1.34283412E+001
1.14296888E+001
1.34259881E+001
1.23237874E+001
3.64972900E+000
7.84700645E+000
1.31008310E+001
1.32691641E+001
1.34273306E+001
1.12602133E+001
1.29214574E+001
8.75116966E+000
1.17305478E+001
6.26956920E+000
1.25313910E+001
1.10794137E+001
1.34242424E+001
1.02540519E+001
1.20042282E+001
1.32666483E+001
1.27246419E+001
1.08928471E+001
1.30970695E+001
2.79876528E+000
1.34255075E+001
1.35744788E+001
1.22327272E+001
1.00000000E+000
7.56986557E+000
1.35746301E+001
5.72797608E+000
1.29139037E+001
1.35752377E+001
1.34232190E+001
1.32638170E+001
1.01329417E+001
9.77342929E+000
4.92509327E+000
9.37592175E+000
1.25122592E+001
1.35760154E+001
1.30909447E+001
8.70432903E+000
1.17163379E+001
1.27160550E+001
1.98367448E+000
1.09197419E+001
1.37179974E+001
1.15570451E+001
1.37205327E+001
1.34266984E+001
7.34716624E+000
1.35786527E+001
1.20105800E+001
1.13864180E+001
1.37196888E+001
1.32649828E+001
1.29071496E+001