# vtk DataFile Version 1.0
ECM-CELL DIFFUSION-MECHANICS
ASCII

DATASET UNSTRUCTURED_GRID
POINTS     2655 float
1.50000000E+001 3.00000000E+001 0.00000000E+000
1.45000000E+001 3.00000000E+001 0.00000000E+000
1.46430000E+001 2.96430000E+001 0.00000000E+000
1.40000000E+001 3.00000000E+001 0.00000000E+000
1.42860000E+001 2.92860000E+001 0.00000000E+000
1.39110000E+001 2.97560000E+001 0.00000000E+000
1.40540000E+001 2.93990000E+001 0.00000000E+000
1.38220000E+001 2.95110000E+001 0.00000000E+000
1.35000000E+001 3.00000000E+001 0.00000000E+000
1.39290000E+001 2.89290000E+001 0.00000000E+000
1.35070000E+001 2.93800000E+001 0.00000000E+000
1.30960000E+001 2.96240000E+001 0.00000000E+000
1.33820000E+001 2.89100000E+001 0.00000000E+000
1.31920000E+001 2.92480000E+001 0.00000000E+000
1.30000000E+001 3.00000000E+001 0.00000000E+000
1.35710000E+001 2.85710000E+001 0.00000000E+000
1.27830000E+001 2.90790000E+001 0.00000000E+000
1.25000000E+001 3.00000000E+001 0.00000000E+000
1.32140000E+001 2.82140000E+001 0.00000000E+000
1.23740000E+001 2.89100000E+001 0.00000000E+000
1.21870000E+001 2.94550000E+001 0.00000000E+000
1.26160000E+001 2.83830000E+001 0.00000000E+000
1.20000000E+001 3.00000000E+001 0.00000000E+000
1.28570000E+001 2.78570000E+001 0.00000000E+000
1.19220000E+001 2.87280000E+001 0.00000000E+000
1.15000000E+001 3.00000000E+001 0.00000000E+000
1.25000000E+001 2.75000000E+001 0.00000000E+000
1.14690000E+001 2.85460000E+001 0.00000000E+000
1.12340000E+001 2.92730000E+001 0.00000000E+000
1.18060000E+001 2.78440000E+001 0.00000000E+000
1.10000000E+001 3.00000000E+001 0.00000000E+000
1.21430000E+001 2.71430000E+001 0.00000000E+000
1.09140000E+001 2.83380000E+001 0.00000000E+000
1.05000000E+001 3.00000000E+001 0.00000000E+000
1.17860000E+001 2.67860000E+001 0.00000000E+000
1.01790000E+001 2.90650000E+001 0.00000000E+000
1.08930000E+001 2.72790000E+001 0.00000000E+000
1.00000000E+001 3.00000000E+001 0.00000000E+000
1.03580000E+001 2.81300000E+001 0.00000000E+000
1.14290000E+001 2.64290000E+001 0.00000000E+000
9.75430000E+000 2.84110000E+001 0.00000000E+000
9.50000000E+000 3.00000000E+001 0.00000000E+000
1.00400000E+001 2.75600000E+001 0.00000000E+000
1.10710000E+001 2.60710000E+001 0.00000000E+000
9.07520000E+000 2.93460000E+001 0.00000000E+000
9.15040000E+000 2.86920000E+001 0.00000000E+000
9.00000000E+000 3.00000000E+001 0.00000000E+000
1.02180000E+001 2.63520000E+001 0.00000000E+000
1.07140000E+001 2.57140000E+001 0.00000000E+000
9.72130000E+000 2.69890000E+001 0.00000000E+000
9.11490000E+000 2.82470000E+001 0.00000000E+000
9.40040000E+000 2.73950000E+001 0.00000000E+000
9.07950000E+000 2.78020000E+001 0.00000000E+000
8.65700000E+000 2.87630000E+001 0.00000000E+000
8.50000000E+000 3.00000000E+001 0.00000000E+000
1.03570000E+001 2.53570000E+001 0.00000000E+000
9.22710000E+000 2.66510000E+001 0.00000000E+000
8.70780000E+000 2.77580000E+001 0.00000000E+000
8.16360000E+000 2.88340000E+001 0.00000000E+000
8.08180000E+000 2.94170000E+001 0.00000000E+000
8.24990000E+000 2.82740000E+001 0.00000000E+000
8.00000000E+000 3.00000000E+001 0.00000000E+000
8.33620000E+000 2.77140000E+001 0.00000000E+000
1.00000000E+001 2.50000000E+001 0.00000000E+000
9.36650000E+000 2.56560000E+001 0.00000000E+000
8.53460000E+000 2.70130000E+001 0.00000000E+000
8.73300000E+000 2.63120000E+001 0.00000000E+000
7.65360000E+000 2.88730000E+001 0.00000000E+000
7.50000000E+000 3.00000000E+001 0.00000000E+000
7.81110000E+000 2.77810000E+001 0.00000000E+000
9.64290000E+000 2.46430000E+001 0.00000000E+000
8.05310000E+000 2.65060000E+001 0.00000000E+000
8.47520000E+000 2.57300000E+001 0.00000000E+000
7.14370000E+000 2.89120000E+001 0.00000000E+000
7.07180000E+000 2.94560000E+001 0.00000000E+000
7.21490000E+000 2.83790000E+001 0.00000000E+000
7.00000000E+000 3.00000000E+001 0.00000000E+000
7.28610000E+000 2.78470000E+001 0.00000000E+000
9.28570000E+000 2.42860000E+001 0.00000000E+000
7.32970000E+000 2.72740000E+001 0.00000000E+000
8.75150000E+000 2.47170000E+001 0.00000000E+000
7.37330000E+000 2.67010000E+001 0.00000000E+000
8.21740000E+000 2.51480000E+001 0.00000000E+000
6.63440000E+000 2.89400000E+001 0.00000000E+000
6.50000000E+000 3.00000000E+001 0.00000000E+000
6.76320000E+000 2.78980000E+001 0.00000000E+000
8.92860000E+000 2.39290000E+001 0.00000000E+000
7.26830000E+000 2.61980000E+001 0.00000000E+000
7.69040000E+000 2.54210000E+001 0.00000000E+000
6.82880000E+000 2.68150000E+001 0.00000000E+000
7.93920000E+000 2.47140000E+001 0.00000000E+000
6.12510000E+000 2.89680000E+001 0.00000000E+000
7.16330000E+000 2.56950000E+001 0.00000000E+000
6.18270000E+000 2.84590000E+001 0.00000000E+000
6.06250000E+000 2.94840000E+001 0.00000000E+000
6.24030000E+000 2.79500000E+001 0.00000000E+000
6.00000000E+000 3.00000000E+001 0.00000000E+000
8.57140000E+000 2.35710000E+001 0.00000000E+000
6.26230000E+000 2.74400000E+001 0.00000000E+000
8.11630000E+000 2.39250000E+001 0.00000000E+000
6.28440000E+000 2.69290000E+001 0.00000000E+000
6.68490000E+000 2.58570000E+001 0.00000000E+000
7.66110000E+000 2.42790000E+001 0.00000000E+000
6.96590000E+000 2.52690000E+001 0.00000000E+000
6.24550000E+000 2.64740000E+001 0.00000000E+000
5.61560000E+000 2.89810000E+001 0.00000000E+000
5.72460000E+000 2.79740000E+001 0.00000000E+000
7.21470000E+000 2.45610000E+001 0.00000000E+000
5.50000000E+000 3.00000000E+001 0.00000000E+000
8.21430000E+000 2.32140000E+001 0.00000000E+000
6.20650000E+000 2.60190000E+001 0.00000000E+000
5.78500000E+000 2.69740000E+001 0.00000000E+000
6.76840000E+000 2.48430000E+001 0.00000000E+000
7.34120000E+000 2.38890000E+001 0.00000000E+000
6.08470000E+000 2.56420000E+001 0.00000000E+000
5.10610000E+000 2.89950000E+001 0.00000000E+000
6.36560000E+000 2.50540000E+001 0.00000000E+000
5.15750000E+000 2.84960000E+001 0.00000000E+000
5.05310000E+000 2.94970000E+001 0.00000000E+000
5.20890000E+000 2.79980000E+001 0.00000000E+000
5.00000000E+000 3.00000000E+001 0.00000000E+000
5.76100000E+000 2.60770000E+001 0.00000000E+000
5.24730000E+000 2.75090000E+001 0.00000000E+000
7.85710000E+000 2.28570000E+001 0.00000000E+000
6.49310000E+000 2.44700000E+001 0.00000000E+000
5.28570000E+000 2.70200000E+001 0.00000000E+000
7.43920000E+000 2.31780000E+001 0.00000000E+000
5.96280000E+000 2.52640000E+001 0.00000000E+000
5.30060000E+000 2.65780000E+001 0.00000000E+000
7.02120000E+000 2.34990000E+001 0.00000000E+000
5.67800000E+000 2.54040000E+001 0.00000000E+000
6.61950000E+000 2.37980000E+001 0.00000000E+000
5.31560000E+000 2.61360000E+001 0.00000000E+000
4.59470000E+000 2.89960000E+001 0.00000000E+000
4.50000000E+000 3.00000000E+001 0.00000000E+000
5.35440000E+000 2.58400000E+001 0.00000000E+000
4.68400000E+000 2.79880000E+001 0.00000000E+000
5.70510000E+000 2.49470000E+001 0.00000000E+000
6.21780000E+000 2.40970000E+001 0.00000000E+000
5.39320000E+000 2.55440000E+001 0.00000000E+000
7.50000000E+000 2.25000000E+001 0.00000000E+000
4.75630000E+000 2.69850000E+001 0.00000000E+000
5.83260000E+000 2.43640000E+001 0.00000000E+000
6.68500000E+000 2.31300000E+001 0.00000000E+000
4.84610000E+000 2.60480000E+001 0.00000000E+000
5.09340000E+000 2.53650000E+001 0.00000000E+000
5.44740000E+000 2.46300000E+001 0.00000000E+000
4.08330000E+000 2.89980000E+001 0.00000000E+000
4.04170000E+000 2.94990000E+001 0.00000000E+000
4.12120000E+000 2.84880000E+001 0.00000000E+000
4.00000000E+000 3.00000000E+001 0.00000000E+000
4.15910000E+000 2.79780000E+001 0.00000000E+000
5.88720000E+000 2.37270000E+001 0.00000000E+000
4.19300000E+000 2.74650000E+001 0.00000000E+000
7.14290000E+000 2.21430000E+001 0.00000000E+000
5.12050000E+000 2.49080000E+001 0.00000000E+000
6.74580000E+000 2.24520000E+001 0.00000000E+000
4.22690000E+000 2.69510000E+001 0.00000000E+000
4.30180000E+000 2.64560000E+001 0.00000000E+000
6.34880000E+000 2.27610000E+001 0.00000000E+000
4.79360000E+000 2.51850000E+001 0.00000000E+000
4.58510000E+000 2.55730000E+001 0.00000000E+000
4.37670000E+000 2.59610000E+001 0.00000000E+000
5.95270000E+000 2.30600000E+001 0.00000000E+000
5.11220000E+000 2.42950000E+001 0.00000000E+000
3.56400000E+000 2.89950000E+001 0.00000000E+000
3.50000000E+000 3.00000000E+001 0.00000000E+000
5.55660000E+000 2.33580000E+001 0.00000000E+000
3.61900000E+000 2.79630000E+001 0.00000000E+000
6.78570000E+000 2.17860000E+001 0.00000000E+000
5.16680000E+000 2.36590000E+001 0.00000000E+000
3.65660000E+000 2.68980000E+001 0.00000000E+000
4.37520000E+000 2.48960000E+001 0.00000000E+000
5.99550000E+000 2.23800000E+001 0.00000000E+000
4.77700000E+000 2.39610000E+001 0.00000000E+000
3.02230000E+000 2.94960000E+001 0.00000000E+000
3.04470000E+000 2.89930000E+001 0.00000000E+000
3.00000000E+000 3.00000000E+001 0.00000000E+000
3.06180000E+000 2.84710000E+001 0.00000000E+000
3.72390000E+000 2.57480000E+001 0.00000000E+000
5.20610000E+000 2.29740000E+001 0.00000000E+000
4.36690000E+000 2.42830000E+001 0.00000000E+000
3.07880000E+000 2.79490000E+001 0.00000000E+000
6.42860000E+000 2.14290000E+001 0.00000000E+000
3.08250000E+000 2.73970000E+001 0.00000000E+000
6.03540000E+000 2.17130000E+001 0.00000000E+000
3.95690000E+000 2.46060000E+001 0.00000000E+000
5.64230000E+000 2.19980000E+001 0.00000000E+000
3.08630000E+000 2.68450000E+001 0.00000000E+000
4.41320000E+000 2.35660000E+001 0.00000000E+000
5.24900000E+000 2.22940000E+001 0.00000000E+000
3.51400000E+000 2.50710000E+001 0.00000000E+000
2.50000000E+000 3.00000000E+001 0.00000000E+000
2.52630000E+000 2.89930000E+001 0.00000000E+000
3.07870000E+000 2.61900000E+001 0.00000000E+000
4.85570000E+000 2.25900000E+001 0.00000000E+000
2.53890000E+000 2.79610000E+001 0.00000000E+000
6.07140000E+000 2.10710000E+001 0.00000000E+000
4.45250000E+000 2.28810000E+001 0.00000000E+000
3.07120000E+000 2.55350000E+001 0.00000000E+000
5.28770000E+000 2.15940000E+001 0.00000000E+000
3.55220000E+000 2.41680000E+001 0.00000000E+000
2.50580000E+000 2.68870000E+001 0.00000000E+000
4.04940000E+000 2.31710000E+001 0.00000000E+000
2.00000000E+000 3.00000000E+001 0.00000000E+000
2.00390000E+000 2.94960000E+001 0.00000000E+000
[...]
POINT_DATA     2655
SCALARS Ux float
LOOKUP_TABLE default
1.00000000E+000
1.04754892E+000
1.00000000E+000
1.16214809E+000
1.00000000E+000
1.18269501E+000
1.08889513E+000
1.18248830E+000
1.34112137E+000
1.00000000E+000
1.27860411E+000
1.50119956E+000
1.21120453E+000
1.39328726E+000
1.56973833E+000
1.00000000E+000
1.56421855E+000
1.84557792E+000
1.00000000E+000
1.76176555E+000
2.00105628E+000
1.41680550E+000
2.16554801E+000
1.00000000E+000
2.00815817E+000
2.52544721E+000
1.00000000E+000
2.28450125E+000
2.66770865E+000
1.70370917E+000
2.92398169E+000
1.00000000E+000
2.66429977E+000
3.35810556E+000
1.00000000E+000
3.55431325E+000
2.12738740E+000
3.82585301E+000
3.08517208E+000
1.00000000E+000
3.78886105E+000
4.32087920E+000
3.11784701E+000
1.00000000E+000
4.72339195E+000
4.51078630E+000
4.84977195E+000
2.09879466E+000
1.00000000E+000
3.10488912E+000
4.40828740E+000
3.70234579E+000
4.26401119E+000
5.07432225E+000
5.40123015E+000
1.00000000E+000
3.42393527E+000
4.66768997E+000
5.65927318E+000
5.84966042E+000
5.40533381E+000
5.97649722E+000
5.08798449E+000
1.00000000E+000
2.43152504E+000
4.48495156E+000
3.76722944E+000
6.27698512E+000
6.57236848E+000
5.75902837E+000
1.00000000E+000
4.77215779E+000
3.62038151E+000
6.91289775E+000
7.07329547E+000
6.70625293E+000
7.18582822E+000
6.44936063E+000
1.00000000E+000
6.15679135E+000
2.23105037E+000
5.80090988E+000
3.42738934E+000
7.56111896E+000
7.81305406E+000
7.14767974E+000
1.00000000E+000
5.63529235E+000
4.43345586E+000
6.61341962E+000
3.37905386E+000
8.22075913E+000
5.43028164E+000
8.05880890E+000
8.35356637E+000
7.85878025E+000
8.45091889E+000
1.00000000E+000
7.66692232E+000
2.16925990E+000
7.43451679E+000
6.26259622E+000
3.31619946E+000
5.39362155E+000
7.27757017E+000
8.88630152E+000
8.56077166E+000
4.34155475E+000
9.09539515E+000
1.00000000E+000
7.09157608E+000
8.16721346E+000
5.34430575E+000
3.36794946E+000
7.05705868E+000
9.55563053E+000
6.18852856E+000
9.42544158E+000
9.66173188E+000
9.26743089E+000
9.74268675E+000
7.80956955E+000
9.10046633E+000
1.00000000E+000
5.46996574E+000
8.90403789E+000
2.22383208E+000
7.01228919E+000
8.72922660E+000
3.42782215E+000
7.57460578E+000
4.54078440E+000
8.52944267E+000
1.02256484E+001
1.03885899E+001
8.33470196E+000
9.98058466E+000
7.23872282E+000
5.61226867E+000
8.12488857E+000
1.00000000E+000
9.66151032E+000
6.57322188E+000
3.56294378E+000
9.23061102E+000
8.53601614E+000
7.48791129E+000
1.08907376E+001
1.09680641E+001
1.08000311E+001
1.10290338E+001
1.06903628E+001
5.89097713E+000
1.05659173E+001
1.00000000E+000
8.25136215E+000
2.37504022E+000
1.04201404E+001
1.01972740E+001
3.73176369E+000
8.96801626E+000
9.47732053E+000
9.94475220E+000
5.01232900E+000
7.90139933E+000
1.15561462E+001
1.16597459E+001
6.22569243E+000
1.14110703E+001
1.00000000E+000
7.34271744E+000
1.12308395E+001
9.58773825E+000
3.96227035E+000
8.37125763E+000
1.22457950E+001
1.22070879E+001
1.22767080E+001
1.21661206E+001
1.09306702E+001
6.66718849E+000
9.35992958E+000
1.21170627E+001
1.00000000E+000
1.20753762E+001
2.67179094E+000
1.02576636E+001
4.27631911E+000
1.20270961E+001
8.94012335E+000
5.81953419E+000
1.11489024E+001
1.28757937E+001
1.28377522E+001
1.19805545E+001
7.23321375E+000
1.28023647E+001
1.00000000E+000
8.48942354E+000
1.19341518E+001
4.72067136E+000
1.09223722E+001
1.28177112E+001
9.61157560E+000
1.34533102E+001
1.34489880E+001
1.34450357E+001
7.91636377E+000
1.34514901E+001
1.00000000E+000
1.07072723E+001
1.34599472E+001
3.13808463E+000
1.35107979E+001
1.29954736E+001
5.50418121E+000
1.16762550E+001
1.26925281E+001
1.35699186E+001
1.03782193E+001
7.37880114E+000
1.40054631E+001
1.40152175E+001
8.80350423E+000
1.00000000E+000
1.40602593E+001
1.37507488E+001
1.26726081E+001
1.01675826E+001
1.41844126E+001
1.39562632E+001
6.58950348E+000
1.13117339E+001
1.24842161E+001
1.45291416E+001
1.45385448E+001
1.45549500E+001
1.35437963E+001
1.45862512E+001
1.00235579E+001
1.00000000E+000
1.46265787E+001
1.24372079E+001
1.46874577E+001
1.44801140E+001
6.03721589E+000
1.47603941E+001
1.22788833E+001
1.45686028E+001
1.50210281E+001
9.21787707E+000
1.48552820E+001
9.36352466E+000
1.50584557E+001
1.34081391E+001
1.44422683E+001
1.04550460E+001
1.13651779E+001
1.49619519E+001
1.51481168E+001
1.43550249E+001
1.24804125E+001
1.36843025E+001
1.53075914E+001
1.14418721E+001
1.09202266E+001
1.44051200E+001
1.34131772E+001
1.54785975E+001
1.54960780E+001
1.52168624E+001
1.55259094E+001
1.42880501E+001
1.27998958E+001
1.31489574E+001
1.55712856E+001
1.55446376E+001
1.56315030E+001
1.62607546E+001
1.44129431E+001
1.57138070E+001
1.31675602E+001
1.52589450E+001
1.40502233E+001
1.56965958E+001
1.58161075E+001
1.37561523E+001
1.45419697E+001
1.58991728E+001
1.43405484E+001
1.59460383E+001
1.59521661E+001
1.44586647E+001
1.52715622E+001
1.48540732E+001
1.81831908E+001
1.60725607E+001
1.61767070E+001
1.61067786E+001
1.50976206E+001
1.61222269E+001
1.60526627E+001
1.81405366E+001
1.56320843E+001
1.55737213E+001
1.62595691E+001
1.62822065E+001
1.57768566E+001
1.61710761E+001
1.62808349E+001
2.00601990E+001
1.63013730E+001
1.62415821E+001
1.63380139E+001
1.62538957E+001
1.80911611E+001
1.63949053E+001
1.64705631E+001
1.72013884E+001
1.66073287E+001
1.65852627E+001
1.66905040E+001
1.68691247E+001
1.65735051E+001
1.83350873E+001
1.68955383E+001
1.69439175E+001
2.17079857E+001
1.66989536E+001
1.98735780E+001
1.66215109E+001
1.70798684E+001
1.74816548E+001
1.72942264E+001
1.86949390E+001
1.66792301E+001
1.68565686E+001
2.15166901E+001
1.71937179E+001
1.81310782E+001
1.68167122E+001
1.70396497E+001
1.80514530E+001
1.90187916E+001
2.31490177E+001
1.72936039E+001
1.77851447E+001
2.14713520E+001
1.77789410E+001
1.70487730E+001
1.80457445E+001
1.72531582E+001
2.01816688E+001
1.77290761E+001
1.82731390E+001
1.73936106E+001
1.69198074E+001
1.69391450E+001
1.94021106E+001
1.69772992E+001
2.14848509E+001
1.87115525E+001
1.70371738E+001
1.74823242E+001
1.91636345E+001
1.73793341E+001
1.71179000E+001
2.44618916E+001
2.29048972E+001
1.80068033E+001
1.72230099E+001
1.98504589E+001
1.86977463E+001
2.15962416E+001
1.78379645E+001
1.73518378E+001
2.06566020E+001
1.93034832E+001
1.84830158E+001
2.43154763E+001
1.71742361E+001
1.75002347E+001
1.77758433E+001
2.17134401E+001
2.02897197E+001
1.72287572E+001
2.56888519E+001
2.42227423E+001
1.76731864E+001
1.73688728E+001
2.29313974E+001
1.95525952E+001
1.78464915E+001
1.93737741E+001
1.99146188E+001
2.18852149E+001
2.02743936E+001
1.91845585E+001
2.41744741E+001
2.07980465E+001
1.76044583E+001
1.80427954E+001
1.81813391E+001
2.13763305E+001
1.83389420E+001
1.91754852E+001
1.85526806E+001
1.73838695E+001
1.73994246E+001
2.68313210E+001
2.21668574E+001
2.54579356E+001
1.74356088E+001
1.88008440E+001
2.41827067E+001
1.79310072E+001
1.74940052E+001
2.04532666E+001
2.31032492E+001
1.75741633E+001
2.12676219E+001
1.99527490E+001
2.66995403E+001
1.76800427E+001
2.42067384E+001
2.24612966E+001
1.92506979E+001
1.83182860E+001
1.78109634E+001
2.66104887E+001
2.79013029E+001
1.79632751E+001
1.87063103E+001
2.53807685E+001
1.75477088E+001
2.13118516E+001
2.42748217E+001
2.17574068E+001
1.75961303E+001
2.10058571E+001
2.22301022E+001
1.81424344E+001
1.97527613E+001
2.06969506E+001
2.28387886E+001
1.92741682E+001
2.65401499E+001
1.77331808E+001
1.83327935E+001
2.35294495E+001
2.04881868E+001
2.44169561E+001
1.85495435E+001
1.79680193E+001
2.76918787E+001
2.89084670E+001
1.87696236E+001
2.65104637E+001
2.03206288E+001
2.21962645E+001
2.54181348E+001
2.31977067E+001
1.90154983E+001
2.14864368E+001
1.76652569E+001
1.76773741E+001
1.83021489E+001
1.77110548E+001
2.45813174E+001
2.87981531E+001
1.77675674E+001
1.93214617E+001
2.64964007E+001
2.02002407E+001
1.78471712E+001
2.09370439E+001
1.79510663E+001
1.96627568E+001
1.87213533E+001
2.30460076E+001
2.35673117E+001
2.87109774E+001
2.26235931E+001
2.75767583E+001
1.80800657E+001
2.41433191E+001
2.98617519E+001
2.22289162E+001
2.65123565E+001
2.48356940E+001
1.82343028E+001
2.19014836E+001
2.56289553E+001
2.00908158E+001
1.92272238E+001
2.86373520E+001
1.84155871E+001
1.77359010E+001
2.15758504E+001
1.77805186E+001
2.65718022E+001
1.86166448E+001
2.39081176E+001
1.79156322E+001
2.50854532E+001
2.30006200E+001
2.05620750E+001
2.12985976E+001
2.96756814E+001
2.85870877E+001
1.88452486E+001
3.07652135E+001
2.75425768E+001
1.98926904E+001
1.81469042E+001
1.90990916E+001
2.66474611E+001
2.22528734E+001
2.85469112E+001
3.06681967E+001
2.10562681E+001
1.93822716E+001
1.84796421E+001
2.47541312E+001
2.53548017E+001
2.42559975E+001
1.77595241E+001
2.37747637E+001
1.77705950E+001
2.60255894E+001
1.78040209E+001
1.78599678E+001
2.33466132E+001
1.97039736E+001
1.79389372E+001
2.67982161E+001
2.95457362E+001
3.05886848E+001
2.85277288E+001
2.07667107E+001
3.16237138E+001
1.80414289E+001
1.89152304E+001
2.29335851E+001
2.15877410E+001
2.76259118E+001
1.81682750E+001
2.00581518E+001
2.25215007E+001
2.56069793E+001
1.83202423E+001
3.05164257E+001
2.45670953E+001
2.85416909E+001
2.69514407E+001
1.84982984E+001
1.94644487E+001
2.04645334E+001
2.21447417E+001
2.36420728E+001
1.87034522E+001
3.04597777E+001
2.94710337E+001
3.14583227E+001
3.24403998E+001
2.85698147E+001
2.17582404E+001
1.89367408E+001
2.09065352E+001
2.58781959E+001
2.64909803E+001
2.53404372E+001
2.27326265E+001
2.71655661E+001
2.01432610E+001
2.48279187E+001
3.04100486E+001
1.91991174E+001
2.78650253E+001
3.23571321E+001
2.43375123E+001
2.13718001E+001
2.86605104E+001
2.38501628E+001
1.94915837E+001
3.13315500E+001
3.03752072E+001
3.22858542E+001
2.33592603E+001
2.94803309E+001
2.61239021E+001
3.32185745E+001
1.98149843E+001
2.73705249E+001
2.18698480E+001
2.09705891E+001
2.50526798E+001
2.28675923E+001
2.87568407E+001
3.22190606E+001
3.03622247E+001
2.01697663E+001
2.40136809E+001
2.23965524E+001
2.69249521E+001
2.05565650E+001
3.12388295E+001
2.75567083E+001
3.21627104E+001
2.63288880E+001
3.30743621E+001
2.82193819E+001
3.03579166E+001
2.57752300E+001
2.89093136E+001
3.39602999E+001
2.52072618E+001
2.19157536E+001
2.29516648E+001
2.09752668E+001
2.96292168E+001
2.46605476E+001
3.21104415E+001
3.38890642E+001
2.41063206E+001
3.04163046E+001
2.77256260E+001
2.14258714E+001
2.65067033E+001
2.90559922E+001
2.35422670E+001
3.20668636E+001
3.29523397E+001
3.12244565E+001
3.38275272E+001
2.53272762E+001
3.46677661E+001
2.19074351E+001
3.04765668E+001
2.29804387E+001
3.20586573E+001
3.37628047E+001
2.78658750E+001
2.41571532E+001
2.72455787E+001
2.85236609E+001
2.66156271E+001
2.91899709E+001
2.60061674E+001
2.24192798E+001
2.98690233E+001
2.53920717E+001
3.28634661E+001
3.37063138E+001
3.05733105E+001
3.20572768E+001
3.45473177E+001
2.47810023E+001
3.13056665E+001
3.53424602E+001
2.29597420E+001
2.79860004E+001
2.93123530E+001
3.36630834E+001
2.41585172E+001
2.66981322E+001
3.20815742E+001
3.06660431E+001
3.52846267E+001
2.54237561E+001
2.35271783E+001
3.36255402E+001
3.44309189E+001
3.28384968E+001
2.87329772E+001
3.52336727E+001
2.80650989E+001
2.94020415E+001
3.21075169E+001
2.74077161E+001
3.00897639E+001
2.67410085E+001
3.59859803E+001
2.41192429E+001
3.07633913E+001
2.60848437E+001
3.36044730E+001
3.51752684E+001
3.14489768E+001
2.54137723E+001
3.21586516E+001
2.94776382E+001
2.81222423E+001
2.47335799E+001
3.43443984E+001
3.35884417E+001
3.51211567E+001
3.08527390E+001
2.67573141E+001
3.28599106E+001
3.58865868E+001
3.65993850E+001
3.22104919E+001
3.50738702E+001
3.35848715E+001
2.53673484E+001
2.95197232E+001
2.88351543E+001
2.81341682E+001
3.02176744E+001
3.65523333E+001
2.74371521E+001
3.09062871E+001
2.67336031E+001
3.15965599E+001
3.42887411E+001
3.50316657E+001
3.57864341E+001
3.35853275E+001
3.22681873E+001
2.60176138E+001
3.65090207E+001
3.29395490E+001
2.95468130E+001
3.71838749E+001
3.49940551E+001
2.81247369E+001
3.09498308E+001
3.64625277E+001
3.36148689E+001
2.66812686E+001
3.23234634E+001
3.49613997E+001
3.42538962E+001
3.56976285E+001
3.64199431E+001
2.95350297E+001
3.02588122E+001
2.88155221E+001
3.09616216E+001
2.80927646E+001
3.71098568E+001
3.36441349E+001
3.16569871E+001
2.73552099E+001
3.49283928E+001
3.23405469E+001
3.77403006E+001
3.63742769E+001
3.30196925E+001
3.77098408E+001
2.95065675E+001
3.36727759E+001
3.48987299E+001
3.09626521E+001
3.56112637E+001
2.80362768E+001
3.63322386E+001
3.23507083E+001
3.42905837E+001
3.70324680E+001
3.76813312E+001
3.49062014E+001
3.82695616E+001
3.36978398E+001
3.62809615E+001
3.02012288E+001
3.09336898E+001
2.94655118E+001
3.16552513E+001
2.87214024E+001
3.76469894E+001
3.23474708E+001
3.54740056E+001
3.30380665E+001
3.49137289E+001
3.62325672E+001
3.37036070E+001
3.69598878E+001
3.76147429E+001
3.08921210E+001
3.82202362E+001
3.61287287E+001
3.43340034E+001
2.94076713E+001
3.23365272E+001
3.87724033E+001
3.49326145E+001
3.60268458E+001
3.75841466E+001
3.37068511E+001
3.54829326E+001
3.87517629E+001
3.08395054E+001
3.00922326E+001
3.15712732E+001
3.22933757E+001
3.60297434E+001
3.49499797E+001
3.30030953E+001
3.75556057E+001
3.81705070E+001
3.68732180E+001
3.87317987E+001
3.64423688E+001
3.36840570E+001
3.92495706E+001
3.43372566E+001
3.60326209E+001
3.07724853E+001
3.22406129E+001
3.49501460E+001
3.87142601E+001
3.75165154E+001
3.55294220E+001
3.36558848E+001
3.68450455E+001
3.60611416E+001
3.71645930E+001
3.86975409E+001
3.81304543E+001
3.92152960E+001
3.49488653E+001
3.65194546E+001
3.14459805E+001
3.21811435E+001
3.74794986E+001
3.29018809E+001
3.97017245E+001
3.69176624E+001
3.36068142E+001
3.42835087E+001
3.86856893E+001
3.60883460E+001
3.96877701E+001
3.49230592E+001
3.21105033E+001
3.69891682E+001
3.55302481E+001
3.35505607E+001
3.91839532E+001
3.86744446E+001
3.96731990E+001
3.60909947E+001
3.76868390E+001
3.81084613E+001
3.48922630E+001
4.01295513E+001
3.66062379E+001
3.70477922E+001
3.74462527E+001
3.96590635E+001
3.27639757E+001
3.34824511E+001
3.86881097E+001
3.60916328E+001
3.41747954E+001
3.48404869E+001
3.96443536E+001
3.91658801E+001
3.54811588E+001
4.01010272E+001
3.71047453E+001
3.78870626E+001
3.34045760E+001
3.60722239E+001
3.87015476E+001
4.05336875E+001
3.47824880E+001
3.96376547E+001
3.66304145E+001
4.05203462E+001
3.71272056E+001
3.75852720E+001
3.79676880E+001
3.60502080E+001
4.00711777E+001
3.83768610E+001
3.40306029E+001
3.96302914E+001
3.87734281E+001
4.05051728E+001
3.47141701E+001
3.91875893E+001
3.53758881E+001
3.71481068E+001
4.09147928E+001
3.60018617E+001
4.04905741E+001
3.96389359E+001
3.80459226E+001
3.65906253E+001
3.46406009E+001
3.88430869E+001
3.71299034E+001
4.04741650E+001
4.00510510E+001
3.59500897E+001
4.08836498E+001
3.76304546E+001
3.96465243E+001
3.80695629E+001
4.12735285E+001
4.04618991E+001
3.85009587E+001
3.71100585E+001
3.52331728E+001
3.88893847E+001
3.58809536E+001
4.12583870E+001
3.92830975E+001
3.64931513E+001
3.96737088E+001
4.08472959E+001
3.80921591E+001
4.04479420E+001
4.12400913E+001
3.70638955E+001
4.00529646E+001
3.89340590E+001
3.58071162E+001
3.76077684E+001
4.16105631E+001
4.12208680E+001
4.04429709E+001
3.80880918E+001
3.96992860E+001
3.70155617E+001
3.85384944E+001
4.08132908E+001
4.11986638E+001
3.89486713E+001
3.63613274E+001
4.15732997E+001
4.04361134E+001
3.93444833E+001
3.80831475E+001
3.69566283E+001
3.97164123E+001
4.11792448E+001
4.19266022E+001
3.75242675E+001
4.00846121E+001
3.89626527E+001
4.19085079E+001
4.04425813E+001
3.80471583E+001
4.11568857E+001
4.15252860E+001
3.68948234E+001
3.97325040E+001
3.85304351E+001
4.07912127E+001
4.18860052E+001
3.89587452E+001
3.80101126E+001
4.11420855E+001
4.04471540E+001
3.93673809E+001
4.22223485E+001
4.18609431E+001
3.97407437E+001
3.74066440E+001
4.14794931E+001
3.89548158E+001
4.18317128E+001
4.01049323E+001
3.79537775E+001
4.11243081E+001
4.04509312E+001
4.21775668E+001
3.84596046E+001
3.97487960E+001
4.07841710E+001
4.18086952E+001
3.89202925E+001
3.78959447E+001
4.24985534E+001
4.11131078E+001
3.93498562E+001
4.04536179E+001
4.24772622E+001
4.17811827E+001
4.21176140E+001
3.97347132E+001
4.14340584E+001
3.88860527E+001
4.24501603E+001
4.01002262E+001
4.10992361E+001
3.83619040E+001
4.17542265E+001
4.04407884E+001
4.24201963E+001
3.97216275E+001
4.27559653E+001
3.88449191E+001
4.07709706E+001
4.20582255E+001
3.92893921E+001
4.23846408E+001
4.10833740E+001
4.17230409E+001
4.04285578E+001
3.96941731E+001
4.13923428E+001
4.27080536E+001
3.88037009E+001
4.23535009E+001
4.00720667E+001
4.16955802E+001
4.10660330E+001
4.29953697E+001
4.04121169E+001
3.96681546E+001
4.23165555E+001
4.19885459E+001
4.26402021E+001
4.07343284E+001
4.29753301E+001
3.92205474E+001
4.16642718E+001
4.10408170E+001
4.29478546E+001
4.22787131E+001
4.03976121E+001
3.96391674E+001
4.13402136E+001
4.00221759E+001
4.29162255E+001
4.32175560E+001
4.16295919E+001
4.25622895E+001
4.10163031E+001
4.22350800E+001
4.03722563E+001
3.96115672E+001
4.28773378E+001
4.19170289E+001
4.06958611E+001
4.31710150E+001
4.15926667E+001
4.28372406E+001
4.21953735E+001
4.09907928E+001
4.03498138E+001
4.12753303E+001
4.34233152E+001
3.99759340E+001
4.27898941E+001
4.24698499E+001
4.15513009E+001
4.30953928E+001
4.21497831E+001
4.09682262E+001
4.03295140E+001
4.34049973E+001
4.18258544E+001
4.27418223E+001
4.06511404E+001
4.33776158E+001
4.15102575E+001
4.20959228E+001
4.09436814E+001
4.03125441E+001
4.33417907E+001
4.26861599E+001
4.30033364E+001
4.36134606E+001
4.12139521E+001
4.23660734E+001
4.32971269E+001
4.20380279E+001
4.14695118E+001
4.09238113E+001
4.26290011E+001
4.35680251E+001
4.32531511E+001
4.17228983E+001
4.06202893E+001
4.19756389E+001
4.14324972E+001
4.28894247E+001
4.09079946E+001
4.32000541E+001
4.37887626E+001
4.25638022E+001
4.34862025E+001
4.22310976E+001
4.11659306E+001
4.37714404E+001
4.31427544E+001
4.19119341E+001
4.14007302E+001
4.08976690E+001
4.37435775E+001
4.24875783E+001
4.16242295E+001
4.37071183E+001
4.30756630E+001
4.33811161E+001
4.27458897E+001
4.18481110E+001
4.39500240E+001
4.13765528E+001
4.24046977E+001
4.36602433E+001
4.20780499E+001
4.11435834E+001
4.29988145E+001
4.36092480E+001
4.39060578E+001
4.17879205E+001
4.13603480E+001
4.23160792E+001
4.32459789E+001
4.15518305E+001
4.29117871E+001
4.35474483E+001
4.25624805E+001
4.40979629E+001
4.17351511E+001
4.38218375E+001
4.22228929E+001
4.13551102E+001
4.40824346E+001
4.34805206E+001
4.28128982E+001
4.19246044E+001
4.40551118E+001
4.16917795E+001
4.21284419E+001
4.34018160E+001
4.30664752E+001
4.40183961E+001
4.27039490E+001
4.37035416E+001
4.23490490E+001
4.42333443E+001
4.15281420E+001
4.39699005E+001
4.20331545E+001
4.33108779E+001
4.16695050E+001
4.25863137E+001
4.39142918E+001
4.41931542E+001
4.17996617E+001
4.32072473E+001
4.35477851E+001
4.28360625E+001
4.19433332E+001
4.38463963E+001
4.16584087E+001
4.24588286E+001
4.43568091E+001
4.21168679E+001
4.41064239E+001
4.30880046E+001
4.43443368E+001
4.37705488E+001
4.18646570E+001
4.23236559E+001
4.43189073E+001
4.33380608E+001
4.29550324E+001
4.36810855E+001
4.17496684E+001
4.42812693E+001
4.25598131E+001
4.39794067E+001
4.17898999E+001
4.21777054E+001
4.44690476E+001
4.42307957E+001
4.35766195E+001
4.28100849E+001
4.18667464E+001
4.41724253E+001
4.44325318E+001
4.20253514E+001
4.17793026E+001
4.34574099E+001
4.30667645E+001
4.38055824E+001
4.26488137E+001
4.41004669E+001
4.22278364E+001
4.45706233E+001
4.43442191E+001
4.33213731E+001
4.18584622E+001
4.40171467E+001
4.45599144E+001
4.24686484E+001
4.16901053E+001
4.45352964E+001
4.35725707E+001
4.31685251E+001
4.39190432E+001
4.16602235E+001
4.27303714E+001
4.44979071E+001
4.42108835E+001
4.22677868E+001
4.18243772E+001
4.46621270E+001
4.44466804E+001
4.38065819E+001
4.29967993E+001
4.14103170E+001
4.20473303E+001
4.43858578E+001
4.46277983E+001
4.36778608E+001
4.32709450E+001
4.40241238E+001
4.28047892E+001
4.43106569E+001
4.23046603E+001
4.08755863E+001
4.17958847E+001
4.47440289E+001
4.35308960E+001
4.45384240E+001
4.12471727E+001
4.42227263E+001
4.47347131E+001
4.25861047E+001
4.15079130E+001
4.03917665E+001
4.47104619E+001
4.37754742E+001
4.33655584E+001
4.41194771E+001
4.28866157E+001
4.46727131E+001
4.43993443E+001
4.17755638E+001
4.23396705E+001
4.48168217E+001
4.11601950E+001
4.40005195E+001
3.99247076E+001
4.46202640E+001
4.31759185E+001