# vtk DataFile Version 1.0
ECM-CELL DIFFUSION-MECHANICS
ASCII

DATASET UNSTRUCTURED_GRID
POINTS       87 float
1.50000000E+001 3.00000000E+001 0.00000000E+000
1.25000000E+001 2.75000000E+001 0.00000000E+000
1.10000000E+001 3.00000000E+001 0.00000000E+000
1.05240000E+001 2.82620000E+001 0.00000000E+000
1.00000000E+001 2.50000000E+001 0.00000000E+000
8.07140000E+000 2.72870000E+001 0.00000000E+000
7.00000000E+000 3.00000000E+001 0.00000000E+000
7.50000000E+000 2.25000000E+001 0.00000000E+000
4.82240000E+000 2.59650000E+001 0.00000000E+000
3.00000000E+000 3.00000000E+001 0.00000000E+000
5.00000000E+000 2.00000000E+001 0.00000000E+000
7.58540000E-001 2.40220000E+001 0.00000000E+000
-1.00000000E+000 3.00000000E+001 0.00000000E+000
5.00000000E+000 1.62500000E+001 0.00000000E+000
5.68520000E-002 1.81300000E+001 0.00000000E+000
-5.00000000E+000 3.00000000E+001 0.00000000E+000
5.00000000E+000 1.25000000E+001 0.00000000E+000
-5.00000000E+000 2.62500000E+001 0.00000000E+000
-5.00000000E+000 2.25000000E+001 0.00000000E+000
1.81160000E+000 1.28430000E+001 0.00000000E+000
-2.19490000E+000 1.54430000E+001 0.00000000E+000
-5.00000000E+000 1.87500000E+001 0.00000000E+000
5.00000000E+000 8.75000000E+000 0.00000000E+000
2.68360000E+000 9.42680000E+000 0.00000000E+000
-4.94100000E-001 1.13150000E+001 0.00000000E+000
-3.30910000E+000 1.37430000E+001 0.00000000E+000
-5.00000000E+000 1.50000000E+001 0.00000000E+000
-2.73230000E+000 1.07860000E+001 0.00000000E+000
1.30440000E+000 7.03610000E+000 0.00000000E+000
5.00000000E+000 5.00000000E+000 0.00000000E+000
-5.00000000E+000 1.12500000E+001 0.00000000E+000
-2.09270000E+000 7.00100000E+000 0.00000000E+000
-5.00000000E+000 7.50000000E+000 0.00000000E+000
5.00000000E+000 1.25000000E+000 0.00000000E+000
1.42530000E+000 2.43720000E+000 0.00000000E+000
-1.88310000E+000 3.21430000E+000 0.00000000E+000
-5.00000000E+000 3.75000000E+000 0.00000000E+000
5.00000000E+000 -2.50000000E+000 0.00000000E+000
1.26940000E+000 -1.44700000E+000 0.00000000E+000
-1.88930000E+000 -2.94350000E-001 0.00000000E+000
-5.00000000E+000 0.00000000E+000 0.00000000E+000
-1.94360000E+000 -2.94470000E+000 0.00000000E+000
5.00000000E+000 -6.25000000E+000 0.00000000E+000
-8.65120000E+000 0.00000000E+000 0.00000000E+000
5.17260000E-001 -5.39410000E+000 0.00000000E+000
-4.48290000E+000 -3.10910000E+000 0.00000000E+000
-7.83620000E+000 -3.22710000E+000 0.00000000E+000
-1.23020000E+001 0.00000000E+000 0.00000000E+000
-3.24660000E+000 -6.25360000E+000 0.00000000E+000
5.00000000E+000 -1.00000000E+001 0.00000000E+000
1.35050000E+000 -1.00000000E+001 0.00000000E+000
-1.13710000E+001 -3.30210000E+000 0.00000000E+000
-6.83920000E+000 -6.49700000E+000 0.00000000E+000
-1.59540000E+001 0.00000000E+000 0.00000000E+000
-2.29910000E+000 -1.00000000E+001 0.00000000E+000
-1.04450000E+001 -6.62590000E+000 0.00000000E+000
-1.48990000E+001 -3.36660000E+000 0.00000000E+000
-5.94860000E+000 -1.00000000E+001 0.00000000E+000
-1.93890000E+001 0.00000000E+000 0.00000000E+000
-1.39710000E+001 -6.70430000E+000 0.00000000E+000
-9.59810000E+000 -1.00000000E+001 0.00000000E+000
-1.83600000E+001 -3.49920000E+000 0.00000000E+000
-2.24030000E+001 0.00000000E+000 0.00000000E+000
-1.32350000E+001 -1.00000000E+001 0.00000000E+000
-1.73060000E+001 -6.83020000E+000 0.00000000E+000
-2.50000000E+001 0.00000000E+000 0.00000000E+000
-2.18880000E+001 -3.81190000E+000 0.00000000E+000
-1.65980000E+001 -1.00000000E+001 0.00000000E+000
-2.03840000E+001 -7.05870000E+000 0.00000000E+000
-2.53860000E+001 -3.04250000E+000 0.00000000E+000
-2.32490000E+001 -5.68410000E+000 0.00000000E+000
-2.75000000E+001 -6.69870000E-001 0.00000000E+000
-2.69920000E+001 -2.17170000E+000 0.00000000E+000
-1.96780000E+001 -1.00000000E+001 0.00000000E+000
-2.27050000E+001 -7.60470000E+000 0.00000000E+000
-2.51530000E+001 -5.63580000E+000 0.00000000E+000
-2.80910000E+001 -2.80260000E+000 0.00000000E+000
-2.76660000E+001 -4.25910000E+000 0.00000000E+000
-2.24770000E+001 -1.00000000E+001 0.00000000E+000
-2.48410000E+001 -7.67170000E+000 0.00000000E+000
-2.93300000E+001 -2.50000000E+000 0.00000000E+000
-2.71870000E+001 -6.19140000E+000 0.00000000E+000
-2.65590000E+001 -7.58930000E+000 0.00000000E+000
-2.50000000E+001 -1.00000000E+001 0.00000000E+000
-3.00000000E+001 -5.00000000E+000 0.00000000E+000
-2.75000000E+001 -9.33010000E+000 0.00000000E+000
-2.93300000E+001 -7.50000000E+000 0.00000000E+000

CELLS       63      315
   4           1           0           2           3  
   4           4           1           3           5  
   4           6           5           3           2  
   4           7           4           5           8  
   4           5           6           9           8  
   4          10           7           8          11  
   4           8           9          12          11  
   4          12          15          17          11  
   4          50          49          42          44  
   4          54          50          44          48  
   4          57          54          48          52  
   4          60          57          52          55  
   4          63          60          55          59  
   4          67          63          59          64  
   4          73          67          64          68  
   4          78          73          68          74  
   4          83          78          74          79  
   4          85          83          79          82  
   4          86          85          82          81  
   4          72          76          77          69  
   4          62          65          69          66  
   4          58          62          66          61  
   4          53          58          61          56  
   4          47          53          56          51  
   4          43          47          51          46  
   4          40          43          46          45  
   4          13          10          11          14  
   4          11          17          18          14  
   4          42          37          38          44  
   4          16          13          14          19  
   4          37          33          34          38  
   4          22          16          19          23  
   4          18          21          20          14  
   4          33          29          28          34  
   4          29          22          23          28  
   4          21          26          25          20  
   4          26          30          27          25  
   4          30          32          31          27  
   4          32          36          35          31  
   4          36          40          39          35  
   4          39          40          45          41  
   4          81          82          79          75  
   4          77          81          75          69  
   4          79          74          70          75  
   4          70          66          69          75  
   4          74          68          66          70  
   4          66          68          64          61  
   4          61          64          59          56  
   4          56          59          55          51  
   4          51          55          52          46  
   4          46          52          48          45  
   4          45          48          44          41  
   4          14          20          24          19  
   4          23          19          24          28  
   4          34          35          39          38  
   4          35          34          28          31  
   4          38          39          41          44  
   4          31          28          24          27  
   4          27          24          20          25  
   4          80          84          77          76  
   4          71          80          76          72  
   4          71          72          69          65  
   4          84          86          81          77  

CELL_TYPES       63
    9     9     9     9     9     9     9     9     9     9     9     9     9     9     9     9     9     9     9     9     9     9     9     9     9     9     9     9     9     9     9     9     9     9     9     9     9     9     9     9     9     9     9     9     9     9     9     9     9     9     9     9     9     9     9     9     9     9     9     9     9     9     9 
POINT_DATA       87
SCALARS Ux float
LOOKUP_TABLE default
1.00000000E+000
1.00000000E+000
9.97585218E-001
9.98607346E-001
1.00000000E+000
9.93642414E-001
9.90610409E-001
1.00000000E+000
9.84621162E-001
9.71259821E-001
1.00000000E+000
9.51466343E-001
9.57364472E-001
8.95851873E-001
9.07544163E-001
9.54280962E-001
8.10676695E-001
9.38141415E-001
9.11865980E-001
8.00029779E-001
8.40885714E-001
8.87161318E-001
7.17637407E-001
7.37107881E-001
7.61156923E-001
7.88992869E-001
8.22787039E-001
7.49156706E-001
6.76810259E-001
6.38662387E-001
7.48050841E-001
6.75029389E-001
6.76924083E-001
5.77294168E-001
5.82691247E-001
5.90882817E-001
5.93692964E-001
5.27740981E-001
5.29545091E-001
5.09057333E-001
4.82736865E-001
4.91495088E-001
5.05277968E-001
3.69995358E-001
4.74563569E-001
4.46574438E-001
3.83248489E-001
2.85534752E-001
4.38852487E-001
4.71509747E-001
4.63766835E-001
3.03064990E-001
3.84029536E-001
2.06168703E-001
4.35566138E-001
3.17310777E-001
2.28569799E-001
3.89813140E-001
1.33621364E-001
2.46024295E-001
3.29229898E-001
1.55682307E-001
7.04054781E-002
2.60329924E-001
1.77764902E-001
-4.85722573E-017
8.62508215E-002
1.93083458E-001
1.10267935E-001
2.74389829E-002
6.18553741E-002
3.98986399E-017
5.91304993E-003
1.31114579E-001
6.90348391E-002
3.36236155E-002
3.42807018E-003
8.97584760E-003
7.15185204E-002
3.59360596E-002
-2.08166817E-017
1.06234719E-002
1.04215017E-002
1.90819582E-017
-6.93889390E-018
6.93889390E-018
-0.00000000E+000
