# vtk DataFile Version 1.0
ECM-CELL DIFFUSION-MECHANICS
ASCII

DATASET UNSTRUCTURED_GRID
POINTS     3410 float
1.50000000E+001 3.00000000E+001 0.00000000E+000
1.45000000E+001 3.00000000E+001 0.00000000E+000
1.46430000E+001 2.96430000E+001 0.00000000E+000
1.41690000E+001 2.96610000E+001 0.00000000E+000
1.40000000E+001 3.00000000E+001 0.00000000E+000
1.42860000E+001 2.92860000E+001 0.00000000E+000
1.38110000E+001 2.95170000E+001 0.00000000E+000
1.35000000E+001 3.00000000E+001 0.00000000E+000
1.39290000E+001 2.89290000E+001 0.00000000E+000
1.35410000E+001 2.91740000E+001 0.00000000E+000
1.32500000E+001 2.95670000E+001 0.00000000E+000
1.30000000E+001 3.00000000E+001 0.00000000E+000
1.35710000E+001 2.85710000E+001 0.00000000E+000
1.30600000E+001 2.91190000E+001 0.00000000E+000
1.27500000E+001 2.95670000E+001 0.00000000E+000
1.25000000E+001 3.00000000E+001 0.00000000E+000
1.32140000E+001 2.82140000E+001 0.00000000E+000
1.28490000E+001 2.86680000E+001 0.00000000E+000
1.25000000E+001 2.91340000E+001 0.00000000E+000
1.22500000E+001 2.95670000E+001 0.00000000E+000
1.20000000E+001 3.00000000E+001 0.00000000E+000
1.28570000E+001 2.78570000E+001 0.00000000E+000
1.25000000E+001 2.82680000E+001 0.00000000E+000
1.22500000E+001 2.87010000E+001 0.00000000E+000
1.20000000E+001 2.91340000E+001 0.00000000E+000
1.17500000E+001 2.95670000E+001 0.00000000E+000
1.20000000E+001 2.82680000E+001 0.00000000E+000
1.15000000E+001 3.00000000E+001 0.00000000E+000
1.17500000E+001 2.87010000E+001 0.00000000E+000
1.22500000E+001 2.78350000E+001 0.00000000E+000
1.25000000E+001 2.75000000E+001 0.00000000E+000
1.15000000E+001 2.91340000E+001 0.00000000E+000
1.12500000E+001 2.95670000E+001 0.00000000E+000
1.15000000E+001 2.82680000E+001 0.00000000E+000
1.17740000E+001 2.77920000E+001 0.00000000E+000
1.12500000E+001 2.87010000E+001 0.00000000E+000
1.10000000E+001 3.00000000E+001 0.00000000E+000
1.21430000E+001 2.71430000E+001 0.00000000E+000
1.10000000E+001 2.91340000E+001 0.00000000E+000
1.07500000E+001 2.95670000E+001 0.00000000E+000
1.12500000E+001 2.78350000E+001 0.00000000E+000
1.10000000E+001 2.82680000E+001 0.00000000E+000
1.15340000E+001 2.73210000E+001 0.00000000E+000
1.07500000E+001 2.87010000E+001 0.00000000E+000
1.05000000E+001 3.00000000E+001 0.00000000E+000
1.17860000E+001 2.67860000E+001 0.00000000E+000
1.05000000E+001 2.91340000E+001 0.00000000E+000
1.02500000E+001 2.95670000E+001 0.00000000E+000
1.10000000E+001 2.74020000E+001 0.00000000E+000
1.07500000E+001 2.78350000E+001 0.00000000E+000
1.12500000E+001 2.69690000E+001 0.00000000E+000
1.05000000E+001 2.82680000E+001 0.00000000E+000
1.02500000E+001 2.87010000E+001 0.00000000E+000
1.00000000E+001 3.00000000E+001 0.00000000E+000
1.14290000E+001 2.64290000E+001 0.00000000E+000
1.00000000E+001 2.91340000E+001 0.00000000E+000
1.05000000E+001 2.74020000E+001 0.00000000E+000
1.07500000E+001 2.69690000E+001 0.00000000E+000
1.02500000E+001 2.78350000E+001 0.00000000E+000
1.10110000E+001 2.65940000E+001 0.00000000E+000
9.75000000E+000 2.95670000E+001 0.00000000E+000
1.00000000E+001 2.82680000E+001 0.00000000E+000
9.75000000E+000 2.87010000E+001 0.00000000E+000
9.50000000E+000 3.00000000E+001 0.00000000E+000
1.10710000E+001 2.60710000E+001 0.00000000E+000
9.50000000E+000 2.91340000E+001 0.00000000E+000
1.02500000E+001 2.69690000E+001 0.00000000E+000
1.00000000E+001 2.74020000E+001 0.00000000E+000
1.05540000E+001 2.65310000E+001 0.00000000E+000
9.75000000E+000 2.78350000E+001 0.00000000E+000
9.50000000E+000 2.82680000E+001 0.00000000E+000
9.25000000E+000 2.95670000E+001 0.00000000E+000
9.25000000E+000 2.87010000E+001 0.00000000E+000
9.00000000E+000 3.00000000E+001 0.00000000E+000
1.03640000E+001 2.61020000E+001 0.00000000E+000
1.07140000E+001 2.57140000E+001 0.00000000E+000
9.00000000E+000 2.91340000E+001 0.00000000E+000
9.75000000E+000 2.69690000E+001 0.00000000E+000
1.00000000E+001 2.65360000E+001 0.00000000E+000
9.50000000E+000 2.74020000E+001 0.00000000E+000
9.25000000E+000 2.78350000E+001 0.00000000E+000
9.00000000E+000 2.82680000E+001 0.00000000E+000
8.75000000E+000 2.95670000E+001 0.00000000E+000
8.75000000E+000 2.87010000E+001 0.00000000E+000
9.50000000E+000 2.65360000E+001 0.00000000E+000
8.50000000E+000 3.00000000E+001 0.00000000E+000
9.25000000E+000 2.69690000E+001 0.00000000E+000
9.75000000E+000 2.61030000E+001 0.00000000E+000
9.00000000E+000 2.74020000E+001 0.00000000E+000
1.00950000E+001 2.56580000E+001 0.00000000E+000
8.50000000E+000 2.91340000E+001 0.00000000E+000
1.03570000E+001 2.53570000E+001 0.00000000E+000
8.75000000E+000 2.78350000E+001 0.00000000E+000
8.50000000E+000 2.82680000E+001 0.00000000E+000
8.25000000E+000 2.95670000E+001 0.00000000E+000
8.25000000E+000 2.87010000E+001 0.00000000E+000
9.00000000E+000 2.65360000E+001 0.00000000E+000
9.25000000E+000 2.61030000E+001 0.00000000E+000
8.75000000E+000 2.69690000E+001 0.00000000E+000
9.50000000E+000 2.56700000E+001 0.00000000E+000
8.00000000E+000 3.00000000E+001 0.00000000E+000
8.50000000E+000 2.74020000E+001 0.00000000E+000
8.00000000E+000 2.91340000E+001 0.00000000E+000
1.00000000E+001 2.50000000E+001 0.00000000E+000
8.25000000E+000 2.78350000E+001 0.00000000E+000
8.00000000E+000 2.82680000E+001 0.00000000E+000
7.75000000E+000 2.95670000E+001 0.00000000E+000
8.75000000E+000 2.61030000E+001 0.00000000E+000
8.50000000E+000 2.65360000E+001 0.00000000E+000
7.75000000E+000 2.87010000E+001 0.00000000E+000
9.00000000E+000 2.56700000E+001 0.00000000E+000
8.25000000E+000 2.69690000E+001 0.00000000E+000
9.31550000E+000 2.51710000E+001 0.00000000E+000
8.00000000E+000 2.74020000E+001 0.00000000E+000
7.50000000E+000 3.00000000E+001 0.00000000E+000
7.50000000E+000 2.91340000E+001 0.00000000E+000
7.75000000E+000 2.78350000E+001 0.00000000E+000
9.64290000E+000 2.46430000E+001 0.00000000E+000
7.50000000E+000 2.82680000E+001 0.00000000E+000
7.25000000E+000 2.95670000E+001 0.00000000E+000
8.25000000E+000 2.61030000E+001 0.00000000E+000
8.50000000E+000 2.56700000E+001 0.00000000E+000
8.00000000E+000 2.65360000E+001 0.00000000E+000
8.75000000E+000 2.52370000E+001 0.00000000E+000
7.25000000E+000 2.87010000E+001 0.00000000E+000
7.75000000E+000 2.69690000E+001 0.00000000E+000
9.00000000E+000 2.48040000E+001 0.00000000E+000
7.50000000E+000 2.74020000E+001 0.00000000E+000
7.00000000E+000 3.00000000E+001 0.00000000E+000
7.00000000E+000 2.91340000E+001 0.00000000E+000
7.25000000E+000 2.78350000E+001 0.00000000E+000
9.28570000E+000 2.42860000E+001 0.00000000E+000
7.00000000E+000 2.82680000E+001 0.00000000E+000
7.76690000E+000 2.60200000E+001 0.00000000E+000
6.75000000E+000 2.95670000E+001 0.00000000E+000
7.50000000E+000 2.65360000E+001 0.00000000E+000
8.50000000E+000 2.48040000E+001 0.00000000E+000
7.25000000E+000 2.69690000E+001 0.00000000E+000
6.75000000E+000 2.87010000E+001 0.00000000E+000
7.91300000E+000 2.55420000E+001 0.00000000E+000
8.71180000E+000 2.44190000E+001 0.00000000E+000
8.16540000E+000 2.51020000E+001 0.00000000E+000
7.00000000E+000 2.74020000E+001 0.00000000E+000
6.50000000E+000 3.00000000E+001 0.00000000E+000
6.75000000E+000 2.78350000E+001 0.00000000E+000
6.50000000E+000 2.91340000E+001 0.00000000E+000
8.92860000E+000 2.39290000E+001 0.00000000E+000
7.31680000E+000 2.60750000E+001 0.00000000E+000
6.50000000E+000 2.82680000E+001 0.00000000E+000
8.20520000E+000 2.45850000E+001 0.00000000E+000
7.42580000E+000 2.56540000E+001 0.00000000E+000
6.25000000E+000 2.95670000E+001 0.00000000E+000
6.75000000E+000 2.69690000E+001 0.00000000E+000
6.95280000E+000 2.63980000E+001 0.00000000E+000
6.25000000E+000 2.87010000E+001 0.00000000E+000
7.57190000E+000 2.51760000E+001 0.00000000E+000
8.35130000E+000 2.41070000E+001 0.00000000E+000
6.50000000E+000 2.74020000E+001 0.00000000E+000
6.00000000E+000 3.00000000E+001 0.00000000E+000
7.71800000E+000 2.46980000E+001 0.00000000E+000
6.25000000E+000 2.78350000E+001 0.00000000E+000
6.00000000E+000 2.91340000E+001 0.00000000E+000
8.57140000E+000 2.35710000E+001 0.00000000E+000
6.93860000E+000 2.57670000E+001 0.00000000E+000
6.00000000E+000 2.82680000E+001 0.00000000E+000
6.50000000E+000 2.65360000E+001 0.00000000E+000
7.86410000E+000 2.42200000E+001 0.00000000E+000
7.08480000E+000 2.52890000E+001 0.00000000E+000
5.75000000E+000 2.95670000E+001 0.00000000E+000
6.25000000E+000 2.69690000E+001 0.00000000E+000
5.75000000E+000 2.87010000E+001 0.00000000E+000
7.23090000E+000 2.48100000E+001 0.00000000E+000
6.00000000E+000 2.74020000E+001 0.00000000E+000
8.01020000E+000 2.37420000E+001 0.00000000E+000
6.51060000E+000 2.59350000E+001 0.00000000E+000
7.37700000E+000 2.43320000E+001 0.00000000E+000
5.50000000E+000 3.00000000E+001 0.00000000E+000
5.75000000E+000 2.78350000E+001 0.00000000E+000
5.50000000E+000 2.91340000E+001 0.00000000E+000
6.59760000E+000 2.54010000E+001 0.00000000E+000
8.21430000E+000 2.32140000E+001 0.00000000E+000
5.50000000E+000 2.82680000E+001 0.00000000E+000
7.52310000E+000 2.38540000E+001 0.00000000E+000
6.74370000E+000 2.49230000E+001 0.00000000E+000
5.90740000E+000 2.65260000E+001 0.00000000E+000
5.75000000E+000 2.69690000E+001 0.00000000E+000
5.25000000E+000 2.95670000E+001 0.00000000E+000
6.88980000E+000 2.44450000E+001 0.00000000E+000
5.25000000E+000 2.87010000E+001 0.00000000E+000
5.50000000E+000 2.74020000E+001 0.00000000E+000
7.66920000E+000 2.33760000E+001 0.00000000E+000
5.96430000E+000 2.59920000E+001 0.00000000E+000
6.11040000E+000 2.55140000E+001 0.00000000E+000
5.25000000E+000 2.78350000E+001 0.00000000E+000
7.03590000E+000 2.39670000E+001 0.00000000E+000
5.00000000E+000 3.00000000E+001 0.00000000E+000
5.00000000E+000 2.91340000E+001 0.00000000E+000
6.25650000E+000 2.50360000E+001 0.00000000E+000
5.50300000E+000 2.65870000E+001 0.00000000E+000
7.85710000E+000 2.28570000E+001 0.00000000E+000
5.00000000E+000 2.82680000E+001 0.00000000E+000
7.18200000E+000 2.34880000E+001 0.00000000E+000
6.40260000E+000 2.45570000E+001 0.00000000E+000
5.25000000E+000 2.69690000E+001 0.00000000E+000
4.75000000E+000 2.95670000E+001 0.00000000E+000
5.47710000E+000 2.61040000E+001 0.00000000E+000
[...]
POINT_DATA     3410
SCALARS Ux float
LOOKUP_TABLE default
1.00000000E+000
1.04562834E+000
1.00000000E+000
1.09717107E+000
1.16242553E+000
1.00000000E+000
1.18845289E+000
1.34012738E+000
1.00000000E+000
1.21786985E+000
1.41744122E+000
1.56469657E+000
1.00000000E+000
1.42449759E+000
1.66950324E+000
1.83666951E+000
1.00000000E+000
1.39198299E+000
1.73475861E+000
1.96381673E+000
2.15118647E+000
1.00000000E+000
1.43026877E+000
1.76360189E+000
2.05352311E+000
2.29976529E+000
1.76307970E+000
2.50579104E+000
2.10930822E+000
1.37232830E+000
1.00000000E+000
2.41239366E+000
2.67438630E+000
2.13400119E+000
1.69126515E+000
2.49175517E+000
2.89776206E+000
1.00000000E+000
2.80812933E+000
3.08498181E+000
2.12800003E+000
2.53985650E+000
1.59037649E+000
2.90934742E+000
3.32455034E+000
1.00000000E+000
3.23841686E+000
3.52915116E+000
2.09283391E+000
2.55842052E+000
1.58394693E+000
2.98011992E+000
3.36031189E+000
3.78377907E+000
1.00000000E+000
3.70108457E+000
2.54973591E+000
2.03289518E+000
3.02248204E+000
1.50821857E+000
4.00459924E+000
3.45280620E+000
3.84260130E+000
4.27312815E+000
1.00000000E+000
4.19393184E+000
2.51591288E+000
3.03837592E+000
1.89177931E+000
3.51793872E+000
3.95588821E+000
4.50902541E+000
4.35408987E+000
4.79024519E+000
1.71718836E+000
1.00000000E+000
4.71469532E+000
3.02914573E+000
2.45643222E+000
3.55754509E+000
4.04303969E+000
4.48735817E+000
5.04005722E+000
4.89256894E+000
2.99587287E+000
5.33268219E+000
3.57324034E+000
2.37228541E+000
4.10603493E+000
1.58636512E+000
5.26100311E+000
1.00000000E+000
4.59597769E+000
5.04508910E+000
5.59519643E+000
5.45568246E+000
3.56658037E+000
2.94005810E+000
4.14676785E+000
2.26694727E+000
5.89784483E+000
4.68214356E+000
5.83032252E+000
1.00000000E+000
5.17470517E+000
5.62674644E+000
6.17177277E+000
3.53894077E+000
4.16710711E+000
6.04086881E+000
2.86222684E+000
4.74800540E+000
1.98508757E+000
5.28387476E+000
6.48295236E+000
6.41991551E+000
5.77690375E+000
1.00000000E+000
6.22973345E+000
6.76690884E+000
4.16926600E+000
3.49091119E+000
4.79558696E+000
2.76023759E+000
6.64531637E+000
5.37505661E+000
1.98157705E+000
5.90893834E+000
7.08500976E+000
7.02680745E+000
6.39992835E+000
1.00000000E+000
6.85114082E+000
4.74484901E+000
7.37749875E+000
5.45071452E+000
2.64216711E+000
6.02572399E+000
7.26593579E+000
4.16307364E+000
1.91467248E+000
3.40913373E+000
6.55464658E+000
7.70079445E+000
7.04071095E+000
7.64777287E+000
1.00000000E+000
5.40078284E+000
7.48772353E+000
2.81159359E+000
4.93847873E+000
8.00020241E+000
6.69752438E+000
6.11672946E+000
7.89935701E+000
4.32318864E+000
2.03469714E+000
7.21755717E+000
8.32685773E+000
3.64221139E+000
7.69577271E+000
8.27933896E+000
1.00000000E+000
5.73039197E+000
8.13592713E+000
6.82992109E+000
2.89083846E+000
5.14536769E+000
8.63145464E+000
7.38531050E+000
8.54194680E+000
4.49487223E+000
7.89388125E+000
2.06530389E+000
6.47355917E+000
3.77424838E+000
8.95954059E+000
8.36133934E+000
8.91780285E+000
5.97921306E+000
1.00000000E+000
8.79192631E+000
2.97687892E+000
5.36641376E+000
7.67761515E+000
8.08616570E+000
9.26748792E+000
4.68335908E+000
9.18983120E+000
8.57964512E+000
2.09786984E+000
7.32679850E+000
6.81830562E+000
9.03338627E+000
3.92241504E+000
9.59500313E+000
9.55926004E+000
6.24886635E+000
8.29324868E+000
1.00000000E+000
9.45162963E+000
3.07474807E+000
5.60936442E+000
8.79483972E+000
9.90436855E+000
8.12476487E+000
4.89343381E+000
9.83892385E+000
9.27076113E+000
7.65801370E+000
2.13600459E+000
7.13407383E+000
9.70751848E+000
4.09053127E+000
1.02292674E+001
6.54559557E+000
1.01996480E+001
1.00000000E+000
8.89581208E+000
1.01106938E+001
5.88321077E+000
3.19077487E+000
9.50952112E+000
8.49222317E+000
1.05380468E+001
5.13582929E+000
8.01601984E+000
9.96215829E+000
1.04849823E+001
2.18385838E+000
7.48122806E+000
1.03789837E+001
4.28909467E+000
1.08582720E+001
6.87902964E+000
1.08348080E+001
1.00000000E+000
9.75521259E+000
1.07646268E+001
6.19714097E+000
9.30854456E+000
3.33057489E+000
1.02202427E+001
8.88419593E+000
1.11644185E+001
8.40716235E+000
5.42085765E+000
1.06484244E+001
1.11236952E+001
7.86981019E+000
2.21365209E+000
1.10429818E+001
4.53212835E+000
7.26128634E+000
1.14779352E+001
1.14605586E+001
1.04431060E+001
1.01040466E+001
9.73171516E+000
1.00000000E+000
1.14089254E+001
6.56681947E+000
1.09240614E+001
3.49342836E+000
9.31257004E+000
8.84135664E+000
1.17793919E+001
1.13246196E+001
5.76631311E+000
1.17507711E+001
8.30974366E+000
2.32035453E+000
1.16948120E+001
4.83627428E+000
7.70565179E+000
1.08755238E+001
1.20842195E+001
1.12096723E+001
1.20727678E+001
1.01888309E+001
7.00989691E+000
1.00000000E+000
1.20391664E+001
9.78372348E+000
1.16141644E+001
1.08221933E+001
3.74277600E+000
9.32931860E+000
1.23789526E+001
1.19857745E+001
6.19789731E+000
1.23620139E+001
8.81511018E+000
1.14927647E+001
2.44658351E+000
1.23299049E+001
5.23666759E+000
8.23467437E+000
1.19169311E+001
1.26731933E+001
1.06861875E+001
1.26674194E+001
1.03066405E+001
1.12615210E+001
1.26510720E+001
1.22864282E+001
1.00000000E+000
7.63865740E+000
4.07383855E+000
9.88085226E+000
1.29592241E+001
1.18406676E+001
1.26272182E+001
1.29533870E+001
1.22383592E+001
2.59599504E+000
7.09256522E+000
1.29438868E+001
9.61877448E+000
8.86520644E+000
1.26015705E+001
1.12038908E+001
1.32410873E+001
1.08671720E+001
1.32406716E+001
1.17677910E+001
1.29354105E+001
1.32405733E+001
1.00000000E+000
6.57587361E+000
1.21963600E+001
5.14837042E+000
1.25836195E+001
1.32444041E+001
1.35165203E+001
1.09367200E+001
8.80670879E+000
1.35210716E+001
1.29359947E+001
2.81283343E+000
1.35326485E+001
1.06272568E+001
1.17214941E+001
9.95782336E+000
1.32587992E+001
8.05816129E+000
1.21785565E+001
1.37843421E+001
1.37889072E+001
1.25882619E+001
1.35565427E+001
7.09278817E+000
1.38038740E+001
1.29583534E+001
1.00000000E+000
5.53983262E+000
1.32944817E+001
1.38332177E+001
1.40473893E+001
3.19022808E+000
1.36016373E+001
1.40615165E+001
1.17360203E+001
1.22161882E+001
1.11987726E+001
1.26407515E+001
1.05865602E+001
1.40924344E+001
9.86324796E+000
1.38841389E+001
1.30228607E+001
9.01836628E+000
1.42996459E+001
1.33681481E+001
1.43087738E+001
7.97650472E+000
1.41457852E+001
1.36817481E+001
1.43374992E+001
1.00000000E+000
6.58226885E+000
1.39680363E+001
1.43899909E+001
1.45486461E+001
1.42308719E+001
1.27810023E+001
1.23584801E+001
1.45714724E+001
1.31619755E+001
1.18889898E+001
1.13631538E+001
1.35059314E+001
1.07763720E+001
1.38180128E+001
1.46198756E+001
1.44736965E+001
1.01306586E+001
1.41021499E+001
1.47839621E+001
8.67644699E+000
1.47972106E+001
9.45759105E+000
1.43618177E+001
1.46996233E+001
1.48383214E+001
8.99191438E+000
1.46001595E+001
1.34277440E+001
1.49115082E+001
1.37481011E+001
1.30808459E+001
1.50173942E+001
1.40423753E+001
1.27086190E+001
1.48200614E+001
9.39909972E+000
1.23176227E+001
1.43121097E+001
1.50480126E+001
1.19276657E+001
1.45593744E+001
1.25686509E+001
1.51119989E+001
1.50241969E+001
1.15899229E+001
1.47862958E+001
1.52345453E+001
1.52514637E+001
1.14367136E+001
1.49950149E+001
1.52150611E+001
1.53035685E+001
1.51876529E+001
1.17359260E+001
1.44027006E+001
1.41578279E+001
1.46353038E+001
1.39059067E+001
1.48533262E+001
1.36576838E+001
1.53949982E+001
1.54449677E+001
1.28583167E+001
1.53662894E+001
1.34347266E+001
1.54510363E+001
1.50561350E+001
1.54885380E+001
1.32791678E+001
1.52440402E+001
1.55329482E+001
1.45827577E+001
1.32702041E+001
1.54178754E+001
1.55662201E+001
1.55787860E+001
1.35371714E+001
1.56489480E+001
1.56690898E+001
1.56895904E+001
1.51246132E+001
1.57308189E+001
1.52851078E+001
1.49676495E+001
1.57281044E+001
1.42292200E+001
1.76326062E+001
1.54427068E+001
1.48253045E+001
1.47164105E+001
1.55938227E+001
1.46722915E+001
1.58381091E+001
1.57366334E+001
1.53631130E+001
1.58672706E+001
1.58472755E+001
1.47426721E+001
1.58704245E+001
1.58907732E+001
1.65900776E+001
1.59951884E+001
1.49980470E+001
1.59977794E+001
1.59803260E+001
1.61113776E+001
1.55153902E+001
1.60250180E+001
1.95071529E+001
1.60479509E+001
1.59888256E+001
1.59080612E+001
1.61211447E+001
1.60789909E+001
1.58466749E+001
1.82941579E+001
1.61721849E+001
1.58199908E+001
1.61179863E+001
1.63318881E+001
1.62197479E+001
1.58509521E+001
1.62644458E+001
1.63534285E+001
1.59723035E+001
1.62388736E+001
1.63212523E+001
1.74025314E+001
1.64378784E+001
1.62041089E+001
1.62264998E+001
1.62527536E+001
1.66588260E+001
1.65172855E+001
1.64169683E+001
1.86387017E+001
1.63524462E+001
2.11529854E+001
1.65916510E+001
1.72996783E+001
1.67402113E+001
1.67584633E+001
1.67428851E+001
1.67891520E+001
1.67786498E+001
1.63608895E+001
1.63862031E+001
1.68264866E+001
1.68644423E+001
1.65080458E+001
1.99154828E+001
1.81438978E+001
1.68666152E+001
1.66613294E+001
1.70227617E+001
1.64632986E+001
1.69070700E+001
1.72811300E+001
1.65956684E+001
2.12023005E+001
1.67269163E+001
1.91489305E+001
1.69463709E+001
1.76685071E+001
1.65198152E+001
2.26213091E+001
1.65728082E+001
1.82073238E+001
1.69837439E+001
1.67891693E+001
2.02498539E+001
1.66810227E+001
1.74751981E+001
1.75303285E+001
1.74408960E+001
1.76158774E+001
1.70189194E+001
1.89032410E+001
1.74203857E+001
1.77445197E+001
1.74086320E+001
1.79322701E+001
1.66549696E+001
1.66822802E+001
1.68489485E+001
2.13896936E+001
1.74021246E+001
1.81979621E+001
1.97396210E+001
1.70519870E+001
1.67652730E+001
1.73984990E+001
1.85612358E+001
2.25456484E+001
1.73962456E+001
1.70832894E+001
1.69071716E+001
2.06814865E+001
1.90385192E+001
2.39682079E+001
1.67929382E+001
1.96376667E+001
1.73944880E+001
1.68495393E+001
1.82216498E+001
1.81221343E+001
1.83486429E+001
1.71133452E+001
1.80425379E+001
1.85127313E+001
2.16873389E+001
1.69647765E+001
1.79771055E+001
1.87256400E+001
2.36363345E+001
2.03537586E+001
1.73928146E+001
1.79215706E+001
1.90007868E+001
1.78728572E+001
1.69059195E+001
1.93520802E+001
1.71427891E+001
2.27197315E+001
1.69348752E+001
1.73911506E+001
2.11689160E+001
1.78288226E+001
1.97917097E+001
1.70226908E+001
2.52060450E+001
1.77880464E+001
2.03271674E+001
1.73896660E+001
2.20567657E+001
1.71723227E+001
2.37550195E+001
1.70222678E+001
1.88266247E+001
1.89894650E+001
1.86883941E+001
1.91842994E+001
1.77496557E+001
2.09584887E+001
2.47151486E+001
1.70818069E+001
1.85688073E+001
1.94199019E+001
1.84631951E+001
1.73887069E+001
1.97061237E+001
2.29890109E+001
1.72026764E+001
1.83680056E+001
1.77131842E+001
2.00531384E+001
2.16771193E+001
1.82806173E+001
2.04701427E+001
1.71126337E+001
1.73887374E+001
2.39410103E+001
1.71429173E+001
2.63597282E+001
1.76784600E+001
2.24672493E+001
1.81991673E+001
2.09636082E+001
2.57613631E+001
1.72345710E+001
1.81223963E+001
2.15355095E+001
1.76455418E+001
2.33090982E+001
1.73902832E+001
1.95477494E+001
2.48920975E+001
1.93528507E+001
1.97703189E+001
1.91799056E+001
2.00272312E+001
1.90242018E+001
2.03258803E+001
1.72068214E+001
1.80495019E+001
2.21822103E+001
1.88819762E+001
1.72687461E+001
2.06738892E+001
1.76146595E+001
2.41826275E+001
1.87503139E+001
2.10783031E+001
1.73939121E+001
1.79800201E+001
2.28945947E+001
2.58345899E+001
1.86270338E+001
2.15445127E+001
2.74378417E+001
1.72742024E+001
1.75861613E+001
2.50700820E+001
1.79136950E+001
2.36595057E+001
1.85105843E+001
1.73054844E+001
2.20751047E+001
2.66894343E+001
1.74000917E+001
1.83999192E+001
2.00306646E+001
2.02790678E+001
2.26689766E+001
1.98062615E+001
2.05565963E+001
1.78505609E+001
1.96014140E+001
2.08688855E+001
2.44619348E+001
1.75603872E+001
2.59579717E+001
1.94124086E+001
2.12217458E+001
1.82943331E+001
2.33210735E+001
1.73459210E+001
1.92362289E+001
2.16206400E+001
1.74101034E+001
2.76450269E+001
1.77907465E+001
1.90705184E+001
2.20699917E+001
2.52871341E+001
1.81934439E+001
2.40229122E+001
2.84556715E+001
1.75379612E+001
2.68350473E+001
1.89134984E+001
2.25724232E+001
1.77346520E+001
1.87639881E+001
2.31280963E+001
2.61221569E+001
1.73895941E+001
1.80966411E+001
2.47637485E+001
1.74208955E+001
2.07168262E+001
2.04437285E+001
2.10147471E+001
1.75177542E+001
2.01915017E+001
2.13418233E+001
2.76955696E+001
1.86212090E+001
2.37343650E+001
1.99567014E+001
2.17025321E+001
1.80045793E+001
2.55319991E+001
1.97364261E+001
2.21011441E+001
1.76818513E+001
2.69563623E+001
1.95282266E+001
1.84844018E+001
2.25412627E+001
2.43858832E+001
1.93303058E+001
2.30253061E+001
2.94194075E+001
1.74457924E+001
2.84625564E+001
2.89570314E+001
1.79163637E+001
2.63165091E+001
1.83540697E+001
2.50751696E+001
1.91410571E+001
2.35540259E+001
2.77817101E+001
1.76355515E+001
1.75212459E+001
1.89601578E+001
2.41261820E+001
1.78349000E+001
1.82259953E+001
2.10884080E+001
2.14068373E+001
2.57934728E+001
2.71073867E+001
1.74579273E+001
2.07912054E+001
2.17498284E+001
1.74903266E+001
2.05121957E+001
2.21208469E+001
2.02487591E+001
2.25232436E+001
1.87869513E+001
2.47384789E+001
2.85923415E+001
1.75910000E+001
1.99987287E+001
2.29599374E+001
2.65316986E+001
1.77527125E+001
2.78964059E+001
1.97596483E+001
2.34330546E+001
1.81204761E+001
1.86189009E+001
2.53858012E+001
3.03304641E+001
2.98893721E+001
1.95313833E+001
2.39435770E+001
2.93833575E+001
1.79897052E+001
2.72811835E+001
2.60617016E+001
1.93102455E+001
2.44910695E+001
2.86770390E+001
2.17368318E+001
2.13975154E+001
2.20968793E+001
2.10763801E+001
2.24803332E+001
1.90997504E+001
2.50735562E+001
1.84797251E+001
1.83037092E+001
2.07711229E+001
2.28898177E+001
2.67590225E+001
2.80342069E+001
1.74811530E+001
1.74960453E+001
2.04798769E+001
2.33276806E+001
1.75259225E+001
1.75804473E+001
2.56875866E+001
1.98320953E+001
2.01649842E+001
2.37957364E+001
2.94441005E+001
1.88931072E+001
1.76593934E+001
2.74705078E+001
2.42950061E+001
1.77555992E+001
3.11957896E+001
3.07756708E+001
2.87842343E+001
3.03619284E+001
2.63284886E+001
1.94055627E+001
1.87112068E+001
1.78836414E+001
2.48254986E+001
3.00886523E+001
1.97017417E+001
2.81892955E+001
1.80269182E+001
2.53860769E+001
2.69907571E+001
2.20077822E+001
2.23860658E+001
2.16469817E+001
2.27838760E+001
2.95259461E+001
2.13017564E+001
2.32032484E+001
1.82046620E+001
1.91815976E+001
2.59744434E+001
2.09702662E+001
2.36460512E+001
2.76684995E+001
2.06520170E+001
2.41137956E+001
2.89092394E+001
1.84024872E+001
2.46074422E+001
2.65872524E+001
2.02249063E+001
3.02552717E+001
3.16182073E+001
3.20190155E+001
3.12207616E+001
2.51272264E+001
1.86306200E+001
2.83558501E+001
2.72203343E+001
2.96250721E+001
2.56725349E+001
1.96377108E+001
1.88897756E+001
2.26197747E+001
2.22220212E+001
2.30337482E+001
2.62418587E+001
2.90472884E+001
3.09704236E+001
2.78689982E+001
2.18389321E+001
2.34654787E+001
2.14693527E+001
2.39164311E+001
3.03324624E+001
2.00043040E+001
1.91719186E+001
2.11099681E+001
2.43878314E+001
2.68328302E+001
2.48805299E+001
2.85283638E+001
2.97378427E+001
2.53948577E+001
2.74423321E+001
3.24206044E+001
3.20399008E+001
1.94921452E+001
3.28031789E+001
3.16638560E+001
3.10296351E+001
2.03762117E+001
2.07714398E+001
2.59305182E+001
2.91936483E+001
2.80666789E+001
3.04232113E+001
2.64865305E+001
1.98387210E+001
2.27998007E+001
2.32317272E+001
2.23813533E+001
2.36780646E+001
2.19746244E+001
2.41400015E+001
2.70612365E+001
2.98603571E+001
2.46184738E+001
2.87018574E+001
3.17109622E+001
2.15731439E+001
2.11940798E+001
2.51142055E+001
2.02186562E+001
3.11014454E+001
2.76523588E+001
2.56275458E+001
2.93438318E+001
3.28204854E+001
3.31853372E+001
3.24579892E+001
2.61583826E+001
3.05243912E+001
3.35506735E+001
2.82570392E+001
2.06319763E+001
2.67060769E+001
3.17662853E+001
2.99887011E+001
2.88720137E+001
2.72694577E+001
2.33792888E+001
2.29271366E+001
2.38421839E+001
3.11838049E+001
2.24881025E+001
2.43177463E+001
2.20533992E+001
2.48063125E+001
2.10752960E+001
2.53085591E+001
2.78468836E+001
2.94937598E+001
3.06327733E+001
3.24164681E+001
2.58247918E+001
2.63550066E+001
2.84363318E+001
3.18323745E+001
3.35649980E+001
3.32165818E+001
3.39145823E+001
3.42635221E+001
2.15528201E+001
2.68987896E+001
3.01191626E+001
3.12740476E+001
3.29985859E+001
2.90350210E+001
2.74552824E+001
3.24693295E+001
2.39582007E+001
2.30008780E+001
2.44505735E+001
3.07449360E+001
2.80232365E+001
2.49518401E+001
2.96402277E+001
2.35180789E+001
2.20539444E+001
2.54637527E+001
3.19065287E+001
2.59863170E+001
2.86011808E+001
2.65196155E+001
3.02479674E+001
3.13698334E+001
3.39402150E+001
2.70634138E+001
3.42752855E+001
3.36063026E+001
3.46101767E+001
3.32760334E+001
3.25293561E+001
2.25935040E+001
3.49434403E+001
2.92229438E+001
2.76170750E+001
3.08582814E+001
3.19861958E+001
2.81795590E+001
2.40257149E+001
2.98715433E+001
2.50551507E+001
2.45043320E+001
2.55800033E+001
3.31404855E+001
2.31506376E+001
2.87495560E+001
3.14664227E+001
2.61119831E+001
3.25958962E+001
2.66516991E+001
2.93265168E+001
2.71989640E+001
3.46311987E+001
3.05984477E+001
3.09683462E+001
3.43094345E+001
3.49530413E+001
3.39891220E+001
3.52736882E+001
2.77543496E+001
3.55918893E+001
2.37411700E+001
3.37699502E+001
3.31940247E+001
2.83050433E+001
3.22600512E+001
2.88362454E+001
3.27421884E+001
2.93044009E+001
2.51153023E+001
2.56582241E+001
3.01090835E+001
2.62015680E+001
3.05727618E+001
3.17014679E+001
2.67510576E+001
2.43505799E+001
3.21505169E+001
2.73047566E+001
2.78633601E+001
3.49809589E+001
3.52907658E+001
3.46713009E+001
3.55996328E+001
3.43627136E+001
3.59064481E+001
3.33556019E+001
3.15155482E+001
3.40578655E+001
3.62101223E+001
3.37522061E+001
3.00331656E+001
2.85248926E+001
2.49776379E+001
3.12515385E+001
2.96882802E+001
3.31580728E+001
2.62538721E+001
2.92468360E+001
3.28663161E+001
3.10259314E+001
2.68393740E+001
2.73803293E+001
3.25789722E+001
2.56280830E+001
3.56221642E+001
3.53233821E+001
3.59201059E+001
3.50246942E+001
2.80008118E+001
3.07511473E+001
3.62162470E+001
3.22952504E+001
3.47271156E+001
3.65096089E+001
3.44308498E+001
3.67992300E+001
3.41368741E+001
3.20138095E+001
2.92099343E+001
3.04741652E+001
2.87275933E+001
3.38457643E+001
2.62848605E+001
3.35571982E+001
3.17343606E+001
2.74250472E+001
3.01946782E+001
3.32714497E+001
3.14553005E+001
3.29881906E+001
3.59461980E+001
3.62340690E+001
3.56574761E+001
2.98701068E+001
3.65202621E+001
3.53686764E+001
3.68039238E+001
3.50803940E+001
2.80595856E+001
3.70841820E+001
3.11748811E+001
3.27066632E+001
2.86229332E+001
2.69602966E+001
3.47931432E+001
3.73601757E+001
3.45073927E+001
3.24260123E+001
2.96165041E+001
3.42232897E+001
3.08912369E+001
3.39407969E+001
3.21451972E+001
3.36597270E+001
2.76380482E+001
3.06025171E+001
2.93137225E+001
3.18627864E+001
3.65406051E+001
3.62619910E+001
3.68175742E+001
3.33795837E+001
3.59824147E+001
3.70921574E+001
3.57024639E+001
3.73635850E+001
3.54226146E+001
3.76310682E+001
3.03064494E+001
3.30996242E+001
3.51432386E+001
3.15771515E+001
3.78938233E+001
2.89966197E+001
3.48645427E+001
2.83227670E+001
3.28189196E+001
3.45865434E+001
3.00006407E+001
3.12865296E+001
3.43090753E+001
3.25363044E+001
3.40317677E+001
3.09889933E+001
3.68389340E+001
3.71073640E+001
3.65688177E+001
2.96827058E+001
3.73734843E+001
3.62975629E+001
3.76366184E+001
3.22503847E+001
3.37540225E+001
3.60256204E+001
3.78960601E+001
2.90076739E+001
3.57533319E+001
3.81510832E+001
3.54809035E+001
3.06824064E+001
3.34750442E+001
3.84009614E+001
3.19595910E+001
3.52083883E+001
3.49356692E+001
3.31938359E+001
3.16622051E+001
3.03645575E+001
3.46624497E+001
2.96922123E+001
3.29092035E+001
3.43882417E+001
3.73889250E+001
3.71284011E+001
3.76471610E+001
3.68661026E+001
3.79025285E+001
3.66024579E+001
3.13563312E+001
3.81543976E+001
3.63377942E+001
3.84021078E+001
3.26197726E+001
3.41123739E+001
3.60723176E+001
3.86449781E+001
3.58061019E+001
3.88823223E+001
3.38339896E+001
3.10399677E+001
3.55390709E+001
3.23240179E+001
3.03729336E+001
3.52709887E+001
3.35520550E+001
3.20202488E+001
3.50014503E+001
3.76616541E+001
3.79125358E+001
3.74084728E+001
3.32653689E+001
3.81606282E+001
3.71534035E+001
3.84053798E+001
3.47298866E+001
3.68967660E+001
3.86461924E+001
3.66387697E+001
3.17066670E+001
3.88824356E+001
3.63795047E+001
3.44555595E+001
3.29725828E+001
3.10473192E+001
3.91134582E+001
3.61189275E+001
3.93385996E+001
3.41775695E+001
3.58568511E+001
3.26721910E+001
3.55929370E+001
3.38948630E+001
3.53266985E+001
3.81690419E+001
3.23625817E+001
3.79250482E+001
3.84103045E+001
3.76787270E+001
3.86483595E+001
3.17130856E+001
3.74303964E+001
3.88826720E+001