# vtk DataFile Version 1.0
ECM-CELL DIFFUSION-MECHANICS
ASCII

DATASET UNSTRUCTURED_GRID
POINTS      894 float
1.50000000E+001 3.00000000E+001 0.00000000E+000
1.40000000E+001 3.00000000E+001 0.00000000E+000
1.42860000E+001 2.92860000E+001 0.00000000E+000
1.33390000E+001 2.93210000E+001 0.00000000E+000
1.30000000E+001 3.00000000E+001 0.00000000E+000
1.35710000E+001 2.85710000E+001 0.00000000E+000
1.25000000E+001 2.91340000E+001 0.00000000E+000
1.20000000E+001 3.00000000E+001 0.00000000E+000
1.28570000E+001 2.78570000E+001 0.00000000E+000
1.20000000E+001 2.82680000E+001 0.00000000E+000
1.15000000E+001 2.91340000E+001 0.00000000E+000
1.10000000E+001 3.00000000E+001 0.00000000E+000
1.21430000E+001 2.71430000E+001 0.00000000E+000
1.14540000E+001 2.75000000E+001 0.00000000E+000
1.05880000E+001 2.90000000E+001 0.00000000E+000
1.08030000E+001 2.81410000E+001 0.00000000E+000
1.00000000E+001 3.00000000E+001 0.00000000E+000
1.14290000E+001 2.64290000E+001 0.00000000E+000
1.05880000E+001 2.70000000E+001 0.00000000E+000
9.76870000E+000 2.85830000E+001 0.00000000E+000
9.72240000E+000 2.75000000E+001 0.00000000E+000
9.00000000E+000 3.00000000E+001 0.00000000E+000
1.07140000E+001 2.57140000E+001 0.00000000E+000
8.85640000E+000 2.90000000E+001 0.00000000E+000
9.72240000E+000 2.65000000E+001 0.00000000E+000
8.85640000E+000 2.80000000E+001 0.00000000E+000
8.85640000E+000 2.70000000E+001 0.00000000E+000
8.00000000E+000 3.00000000E+001 0.00000000E+000
1.00000000E+001 2.50000000E+001 0.00000000E+000
7.99040000E+000 2.85000000E+001 0.00000000E+000
8.70610000E+000 2.61470000E+001 0.00000000E+000
7.99040000E+000 2.75000000E+001 0.00000000E+000
8.97020000E+000 2.52660000E+001 0.00000000E+000
7.99040000E+000 2.65000000E+001 0.00000000E+000
7.12440000E+000 2.90000000E+001 0.00000000E+000
7.00000000E+000 3.00000000E+001 0.00000000E+000
9.28570000E+000 2.42860000E+001 0.00000000E+000
7.12440000E+000 2.80000000E+001 0.00000000E+000
7.99100000E+000 2.54680000E+001 0.00000000E+000
7.12440000E+000 2.70000000E+001 0.00000000E+000
8.30520000E+000 2.45200000E+001 0.00000000E+000
7.15860000E+000 2.59480000E+001 0.00000000E+000
6.21530000E+000 2.85830000E+001 0.00000000E+000
6.00000000E+000 3.00000000E+001 0.00000000E+000
8.57140000E+000 2.35710000E+001 0.00000000E+000
6.25830000E+000 2.75000000E+001 0.00000000E+000
7.22630000E+000 2.49580000E+001 0.00000000E+000
6.25830000E+000 2.65000000E+001 0.00000000E+000
5.42530000E+000 2.90740000E+001 0.00000000E+000
7.38630000E+000 2.38100000E+001 0.00000000E+000
5.39230000E+000 2.80000000E+001 0.00000000E+000
6.25830000E+000 2.55000000E+001 0.00000000E+000
5.00000000E+000 3.00000000E+001 0.00000000E+000
5.39230000E+000 2.70000000E+001 0.00000000E+000
7.85710000E+000 2.28570000E+001 0.00000000E+000
6.25830000E+000 2.45000000E+001 0.00000000E+000
5.39230000E+000 2.60000000E+001 0.00000000E+000
7.12440000E+000 2.30000000E+001 0.00000000E+000
4.51880000E+000 2.87860000E+001 0.00000000E+000
4.52630000E+000 2.75000000E+001 0.00000000E+000
5.39230000E+000 2.50000000E+001 0.00000000E+000
6.25830000E+000 2.35000000E+001 0.00000000E+000
4.00000000E+000 3.00000000E+001 0.00000000E+000
4.52630000E+000 2.65000000E+001 0.00000000E+000
7.14290000E+000 2.21430000E+001 0.00000000E+000
5.39230000E+000 2.40000000E+001 0.00000000E+000
3.66030000E+000 2.90000000E+001 0.00000000E+000
4.52630000E+000 2.55000000E+001 0.00000000E+000
3.66030000E+000 2.80000000E+001 0.00000000E+000
6.25830000E+000 2.25000000E+001 0.00000000E+000
3.66030000E+000 2.70000000E+001 0.00000000E+000
4.52630000E+000 2.45000000E+001 0.00000000E+000
5.39230000E+000 2.30000000E+001 0.00000000E+000
3.00000000E+000 3.00000000E+001 0.00000000E+000
3.66030000E+000 2.60000000E+001 0.00000000E+000
6.42860000E+000 2.14290000E+001 0.00000000E+000
2.82850000E+000 2.85830000E+001 0.00000000E+000
4.52630000E+000 2.35000000E+001 0.00000000E+000
3.66030000E+000 2.50000000E+001 0.00000000E+000
2.79420000E+000 2.75000000E+001 0.00000000E+000
5.39230000E+000 2.20000000E+001 0.00000000E+000
2.90860000E+000 2.66340000E+001 0.00000000E+000
3.66030000E+000 2.40000000E+001 0.00000000E+000
4.52630000E+000 2.25000000E+001 0.00000000E+000
2.00000000E+000 3.00000000E+001 0.00000000E+000
1.92820000E+000 2.90000000E+001 0.00000000E+000
5.71430000E+000 2.07140000E+001 0.00000000E+000
1.92820000E+000 2.80000000E+001 0.00000000E+000
2.50000000E+000 2.56700000E+001 0.00000000E+000
3.66030000E+000 2.30000000E+001 0.00000000E+000
2.79420000E+000 2.45000000E+001 0.00000000E+000
1.92820000E+000 2.70000000E+001 0.00000000E+000
4.65890000E+000 2.13690000E+001 0.00000000E+000
2.79420000E+000 2.35000000E+001 0.00000000E+000
3.66030000E+000 2.20000000E+001 0.00000000E+000
1.00000000E+000 3.00000000E+001 0.00000000E+000
1.85880000E+000 2.49160000E+001 0.00000000E+000
9.71280000E-001 2.83610000E+001 0.00000000E+000
5.00000000E+000 2.00000000E+001 0.00000000E+000
1.50000000E+000 2.56700000E+001 0.00000000E+000
2.79420000E+000 2.25000000E+001 0.00000000E+000
1.00000000E+000 2.65360000E+001 0.00000000E+000
7.61100000E-001 2.74430000E+001 0.00000000E+000
3.66030000E+000 2.10000000E+001 0.00000000E+000
5.00000000E-001 2.91340000E+001 0.00000000E+000
1.50000000E+000 2.39380000E+001 0.00000000E+000
1.92820000E+000 2.30000000E+001 0.00000000E+000
5.00000000E+000 1.90000000E+001 0.00000000E+000
2.79420000E+000 2.15000000E+001 0.00000000E+000
1.00000000E+000 2.48040000E+001 0.00000000E+000
1.77640000E-015 3.00000000E+001 0.00000000E+000
-3.55270000E-015 2.82680000E+001 0.00000000E+000
5.00000000E-001 2.56700000E+001 0.00000000E+000
3.58180000E+000 2.00000000E+001 0.00000000E+000
-8.88180000E-015 2.65360000E+001 0.00000000E+000
1.71530000E+000 2.21110000E+001 0.00000000E+000
2.79420000E+000 2.05000000E+001 0.00000000E+000
-5.00000000E-001 2.91340000E+001 0.00000000E+000
5.00000000E+000 1.80000000E+001 0.00000000E+000
1.00000000E+000 2.30720000E+001 0.00000000E+000
-5.00000000E-001 2.74020000E+001 0.00000000E+000
5.00000000E-001 2.39380000E+001 0.00000000E+000
3.66030000E+000 1.90000000E+001 0.00000000E+000
1.92820000E+000 2.10000000E+001 0.00000000E+000
-8.88180000E-015 2.48040000E+001 0.00000000E+000
-1.00000000E+000 3.00000000E+001 0.00000000E+000
-1.00000000E+000 2.82680000E+001 0.00000000E+000
-5.00000000E-001 2.56700000E+001 0.00000000E+000
2.79420000E+000 1.95000000E+001 0.00000000E+000
1.06220000E+000 2.15000000E+001 0.00000000E+000
-1.00000000E+000 2.65360000E+001 0.00000000E+000
5.00000000E+000 1.70000000E+001 0.00000000E+000
1.92820000E+000 2.00000000E+001 0.00000000E+000
5.00000000E-001 2.22060000E+001 0.00000000E+000
3.66030000E+000 1.80000000E+001 0.00000000E+000
-1.50000000E+000 2.91340000E+001 0.00000000E+000
1.77640000E-015 2.30720000E+001 0.00000000E+000
-5.00000000E-001 2.39380000E+001 0.00000000E+000
-1.50000000E+000 2.74020000E+001 0.00000000E+000
2.79420000E+000 1.85000000E+001 0.00000000E+000
-1.00000000E+000 2.48040000E+001 0.00000000E+000
1.06220000E+000 2.05000000E+001 0.00000000E+000
-2.00000000E+000 3.00000000E+001 0.00000000E+000
-1.50000000E+000 2.56700000E+001 0.00000000E+000
1.92820000E+000 1.90000000E+001 0.00000000E+000
-2.00000000E+000 2.82680000E+001 0.00000000E+000
5.00000000E+000 1.60000000E+001 0.00000000E+000
3.66030000E+000 1.70000000E+001 0.00000000E+000
1.42110000E-014 2.13400000E+001 0.00000000E+000
-2.00000000E+000 2.65360000E+001 0.00000000E+000
-5.00000000E-001 2.22060000E+001 0.00000000E+000
-1.00000000E+000 2.30720000E+001 0.00000000E+000
1.06220000E+000 1.95000000E+001 0.00000000E+000
2.79420000E+000 1.75000000E+001 0.00000000E+000
-2.50000000E+000 2.91340000E+001 0.00000000E+000
-1.50000000E+000 2.39380000E+001 0.00000000E+000
-2.50000000E+000 2.74020000E+001 0.00000000E+000
1.92820000E+000 1.80000000E+001 0.00000000E+000
-2.00000000E+000 2.48040000E+001 0.00000000E+000
1.96150000E-001 2.00000000E+001 0.00000000E+000
-3.00000000E+000 3.00000000E+001 0.00000000E+000
3.66030000E+000 1.60000000E+001 0.00000000E+000
5.00000000E+000 1.50000000E+001 0.00000000E+000
-2.50000000E+000 2.56700000E+001 0.00000000E+000
1.06220000E+000 1.85000000E+001 0.00000000E+000
-3.00000000E+000 2.82680000E+001 0.00000000E+000
-1.00000000E+000 2.13400000E+001 0.00000000E+000
2.79420000E+000 1.65000000E+001 0.00000000E+000
-1.50000000E+000 2.22060000E+001 0.00000000E+000
-6.69870000E-001 2.05000000E+001 0.00000000E+000
-3.00000000E+000 2.65360000E+001 0.00000000E+000
-2.00000000E+000 2.30720000E+001 0.00000000E+000
1.92820000E+000 1.70000000E+001 0.00000000E+000
1.96150000E-001 1.90000000E+001 0.00000000E+000
-2.50000000E+000 2.39380000E+001 0.00000000E+000
-3.58330000E+000 2.91120000E+001 0.00000000E+000
1.06220000E+000 1.75000000E+001 0.00000000E+000
-3.00000000E+000 2.48040000E+001 0.00000000E+000
-3.58330000E+000 2.73350000E+001 0.00000000E+000
3.66030000E+000 1.50000000E+001 0.00000000E+000
-6.69870000E-001 1.95000000E+001 0.00000000E+000
5.00000000E+000 1.40000000E+001 0.00000000E+000
2.79420000E+000 1.55000000E+001 0.00000000E+000
-4.00000000E+000 3.00000000E+001 0.00000000E+000
1.96150000E-001 1.80000000E+001 0.00000000E+000
-3.58330000E+000 2.57250000E+001 0.00000000E+000
-2.00000000E+000 2.13400000E+001 0.00000000E+000
-4.00000000E+000 2.82680000E+001 0.00000000E+000
1.92820000E+000 1.60000000E+001 0.00000000E+000
-2.50000000E+000 2.22060000E+001 0.00000000E+000
-1.52560000E+000 2.02400000E+001 0.00000000E+000
-3.00000000E+000 2.30720000E+001 0.00000000E+000
-4.03330000E+000 2.65190000E+001 0.00000000E+000
1.06220000E+000 1.65000000E+001 0.00000000E+000
-6.69870000E-001 1.85000000E+001 0.00000000E+000
-3.50000000E+000 2.39380000E+001 0.00000000E+000
3.66030000E+000 1.40000000E+001 0.00000000E+000
-4.00000000E+000 2.48040000E+001 0.00000000E+000
1.96150000E-001 1.70000000E+001 0.00000000E+000
5.00000000E+000 1.30000000E+001 0.00000000E+000
2.79420000E+000 1.45000000E+001 0.00000000E+000
-2.40190000E+000 2.05000000E+001 0.00000000E+000
-1.53590000E+000 1.90000000E+001 0.00000000E+000
1.92820000E+000 1.50000000E+001 0.00000000E+000
[...]
POINT_DATA      894
SCALARS Ux float
LOOKUP_TABLE default
1.00000000E+000
9.99639687E-001
1.00000000E+000
9.99151914E-001
9.98550510E-001
1.00000000E+000
9.97985576E-001
9.96729584E-001
1.00000000E+000
9.97846181E-001
9.95820785E-001
9.94214211E-001
1.00000000E+000
9.97691195E-001
9.93325653E-001
9.94862415E-001
9.90967018E-001
1.00000000E+000
9.96112476E-001
9.90780028E-001
9.92080512E-001
9.87078998E-001
1.00000000E+000
9.86814242E-001
9.94170343E-001
9.87733157E-001
9.89367469E-001
9.82521521E-001
1.00000000E+000
9.83117385E-001
9.90663118E-001
9.84292790E-001
9.94635452E-001
9.86118948E-001
9.78392043E-001
9.77476890E-001
1.00000000E+000
9.79083213E-001
9.88817440E-001
9.80336628E-001
9.94032798E-001
9.82563123E-001
9.73503620E-001
9.71927639E-001
1.00000000E+000
9.74548074E-001
9.85731259E-001
9.75755006E-001
9.68720605E-001
9.91442912E-001
9.68863942E-001
9.77529959E-001
9.66106189E-001
9.69468240E-001
1.00000000E+000
9.80095837E-001
9.70408702E-001
9.93820595E-001
9.63270488E-001
9.63488449E-001
9.71807644E-001
9.83789292E-001
9.60106013E-001
9.63745295E-001
1.00000000E+000
9.73882910E-001
9.58017579E-001
9.64146106E-001
9.57885031E-001
9.89123494E-001
9.57639554E-001
9.64782411E-001
9.77018317E-001
9.54165627E-001
9.57320735E-001
1.00000000E+000
9.52904953E-001
9.65804055E-001
9.56811868E-001
9.52130444E-001
9.82009216E-001
9.52212127E-001
9.56241916E-001
9.67501100E-001
9.48410413E-001
9.47792762E-001
1.00000000E+000
9.47188086E-001
9.48029677E-001
9.55397733E-001
9.48534227E-001
9.46084622E-001
9.73980086E-001
9.46119150E-001
9.53872381E-001
9.43093248E-001
9.41472983E-001
9.42172188E-001
1.00000000E+000
9.40804171E-001
9.42845296E-001
9.39513096E-001
9.39847066E-001
9.50168729E-001
9.40337316E-001
9.35121664E-001
9.35013439E-001
9.36199940E-001
9.37375875E-001
9.34596250E-001
9.38278966E-001
9.37234745E-001
9.34241049E-001
9.39591622E-001
9.33941026E-001
9.27221580E-001
9.28423200E-001
9.35856783E-001
8.95926249E-001
9.26425102E-001
9.33521051E-001
9.27176211E-001
9.15087422E-001
9.20462101E-001
9.27946186E-001
9.34192412E-001
9.32972067E-001
9.28645651E-001
9.12709465E-001
9.15130902E-001
9.29194210E-001
8.65446919E-001
9.08050861E-001
9.15916418E-001
8.87136808E-001
9.32125260E-001
9.18407899E-001
9.20560284E-001
9.29524033E-001
8.91182655E-001
9.22457771E-001
9.04354869E-001
9.30911489E-001
9.24093754E-001
8.91590147E-001
9.29570604E-001
8.39611900E-001
8.61279123E-001
9.03973768E-001
9.25439831E-001
9.08315587E-001
9.12053937E-001
8.90765028E-001
8.68251236E-001
9.29248283E-001
9.15319821E-001
9.26446515E-001
8.72323183E-001
9.18181039E-001
8.90141469E-001
9.28529512E-001
8.37382577E-001
8.16261090E-001
9.20644120E-001
8.74509446E-001
9.27107551E-001
8.97057515E-001
8.45661791E-001
9.02484138E-001
8.89903204E-001
9.22736446E-001
9.07236031E-001
8.51925221E-001
8.75942400E-001
9.11429980E-001
9.27145133E-001
8.56480291E-001
9.15140895E-001
9.24045274E-001
8.14938126E-001
8.77313183E-001
7.94384501E-001
8.23809777E-001
9.27110635E-001
8.59954815E-001
9.18421569E-001
8.91989541E-001
9.25649406E-001
8.31323638E-001
8.98252354E-001
8.82086899E-001
9.03876085E-001
9.21062951E-001
8.37511173E-001
8.62970954E-001
9.08826123E-001
7.93512806E-001
9.13388478E-001
8.42657281E-001
7.73402892E-001
8.02663708E-001
8.81340754E-001
8.66007904E-001
8.10889345E-001
8.88521681E-001
9.26577293E-001
9.26043951E-001
8.47168922E-001
9.24570636E-001
8.18144534E-001
8.95068710E-001
9.22076409E-001
9.01945337E-001
7.73056969E-001
8.69239969E-001
8.24535609E-001
9.18476730E-001
8.51438389E-001
7.82104820E-001
7.53095488E-001
9.13768690E-001
7.90727716E-001
8.30293188E-001
8.73062122E-001
7.98666720E-001
8.55762751E-001
9.07772535E-001
8.87004947E-001
8.35698812E-001
8.05940382E-001
9.00651963E-001
7.52690253E-001
8.60379804E-001
7.61965791E-001
8.12667333E-001
8.77289148E-001
8.41021182E-001
7.70833733E-001
7.33249286E-001
8.92081882E-001
7.79207994E-001
8.19031101E-001
7.87090100E-001
8.65437663E-001
8.46489144E-001
8.82271275E-001
8.25240253E-001
7.94538171E-001
7.32928124E-001
7.42199182E-001
7.51176825E-001
8.52286857E-001
8.01665488E-001
7.13760964E-001
8.71047626E-001
7.59819274E-001
8.31497651E-001
7.68110235E-001
8.08621663E-001
7.76077231E-001
8.58560752E-001
8.37986338E-001
7.13487388E-001
7.22708158E-001
7.83788449E-001
8.15571036E-001
7.31726076E-001
7.40516910E-001
6.94577497E-001
7.91346319E-001
7.49069809E-001
8.44867738E-001
8.22677708E-001
7.57397098E-001
7.98875722E-001
7.65539299E-001
8.30099191E-001
7.03456081E-001
6.94321764E-001
7.12452207E-001
7.21303192E-001
7.73564269E-001
8.06513014E-001
7.30006171E-001
6.75679003E-001
7.38569243E-001
7.81562281E-001
8.14399237E-001
7.47016743E-001
7.89639850E-001
7.55392073E-001
6.84425067E-001
6.93341999E-001
6.75416144E-001
7.02177747E-001
7.10939949E-001
7.63757157E-001
7.97914717E-001
7.19637988E-001
6.57073422E-001
7.28287626E-001
7.72190235E-001
7.36915175E-001
6.74396246E-001
6.65618267E-001
7.80783281E-001
6.83144662E-001
6.56780983E-001
7.45559770E-001
6.91884387E-001
7.00630264E-001
7.54274205E-001
7.09394657E-001
6.38793716E-001
7.18191996E-001
7.63124754E-001
7.27042821E-001
6.55631428E-001
6.64216067E-001
6.47059836E-001
6.72851438E-001
6.38450407E-001
6.81562316E-001
7.35977094E-001
6.90362269E-001
6.99257842E-001
7.45036322E-001
6.20896570E-001
7.08253838E-001
7.17358975E-001
6.45415973E-001
6.37082201E-001
6.53856562E-001
6.28795849E-001
6.62444692E-001
6.20481927E-001
6.71200827E-001
7.26590552E-001
6.80127751E-001
6.89216525E-001
6.03461472E-001
6.98454798E-001
6.26785257E-001
6.34924210E-001
6.18804887E-001
6.43287057E-001
6.10895979E-001
7.07834823E-001
6.51909929E-001
6.02956645E-001
6.60798057E-001
6.69930967E-001
6.79273879E-001
5.86588921E-001
6.88790817E-001
6.16095673E-001
6.08388455E-001
6.24104817E-001
6.00881614E-001
6.32482106E-001
5.93455132E-001
6.41246894E-001
5.85979078E-001
6.50371953E-001
6.59797551E-001
6.69452697E-001
5.70395937E-001
5.97441023E-001
6.04930379E-001
5.90322097E-001
6.12909442E-001
5.83423174E-001
6.21434576E-001
5.76594517E-001
6.30484720E-001
5.69676027E-001
6.39973428E-001
6.49782474E-001
5.55005172E-001
5.85833164E-001
5.79076498E-001
5.93198113E-001
5.72721595E-001
6.01306767E-001
5.66564142E-001
6.10177499E-001
5.60469814E-001
6.19703830E-001
5.54190165E-001
6.29700154E-001
5.40512860E-001
5.66953337E-001
5.73399578E-001
5.61187936E-001
5.80809491E-001
5.43138428E-001
5.89311447E-001
5.54265155E-001
5.98823458E-001
5.43252651E-001
6.09063886E-001
5.45167691E-001
5.33235349E-001
5.53657928E-001
5.48564839E-001
5.59945647E-001
5.27170352E-001
5.67695363E-001
5.43205757E-001
5.31928098E-001
5.77055810E-001
5.87628513E-001
5.36168865E-001
5.29417455E-001
5.23047221E-001
5.45121394E-001
5.36737301E-001
5.25464305E-001
5.30978578E-001
5.53927904E-001
5.15137153E-001
5.27136847E-001
5.64948548E-001
5.19558096E-001
5.20533553E-001
5.16158668E-001
5.10662106E-001
5.14637116E-001
5.16740065E-001
5.27222067E-001
5.40095152E-001
5.11256511E-001
5.04106946E-001
5.14886845E-001
5.07500649E-001
5.06074996E-001
5.02958020E-001
5.05895661E-001
5.03280445E-001
5.00234481E-001
5.10815348E-001
4.99996586E-001
4.97636782E-001
4.95268296E-001
4.97282020E-001
4.94665070E-001
4.96083486E-001
4.83868463E-001
4.87216746E-001
4.90442215E-001
4.93319462E-001
4.90983369E-001
4.67000813E-001
4.90003086E-001
4.81087166E-001
4.74328519E-001
4.84457501E-001
4.86480168E-001
4.86443538E-001
4.85217871E-001
4.25154854E-001
4.69256409E-001
4.75882147E-001
4.57555568E-001
4.84503036E-001
4.79251500E-001
3.95569536E-001
4.80703356E-001
4.37243116E-001
4.65470656E-001
4.54898668E-001
4.79964138E-001
4.71579690E-001
4.79896862E-001
4.75471490E-001
4.52537930E-001
4.37985062E-001
4.62225653E-001
3.69702582E-001
4.76647869E-001
4.11978160E-001
4.68513936E-001
4.72065257E-001
3.74881963E-001
4.50991621E-001
4.75396311E-001
4.37209705E-001
4.18057874E-001
4.74605239E-001
4.59685044E-001
3.46653900E-001
3.86421423E-001
4.73523654E-001
4.66111542E-001
4.37611899E-001
4.20325029E-001
4.49501579E-001
4.69501978E-001
3.54615405E-001
3.95966942E-001
4.58328893E-001
4.72264148E-001
3.24851231E-001
4.70989564E-001
4.64272128E-001
3.65292611E-001
4.22615778E-001
4.37707598E-001
4.70891076E-001
4.01508925E-001
4.49158210E-001
4.67861848E-001
3.74134929E-001
3.33188623E-001
4.57445478E-001
4.23714539E-001
4.05616026E-001
3.03804351E-001
4.69567529E-001
4.37763814E-001
3.43762738E-001
4.63175442E-001
3.81703387E-001
4.48919151E-001
3.12561686E-001
4.66919419E-001
4.57112272E-001
3.52652274E-001
4.09131016E-001
4.25911117E-001
3.88537994E-001
4.68787071E-001
3.23964836E-001
4.39082654E-001
2.83279536E-001
4.63016745E-001
3.61403034E-001
4.49709729E-001
2.96158378E-001
3.32630600E-001
4.11982385E-001
3.92562625E-001
4.57761308E-001
4.66914664E-001
4.27523572E-001
3.69484285E-001
4.40662785E-001
3.03849503E-001
4.63934810E-001
2.63093346E-001
4.50907449E-001
3.40062802E-001
3.96908949E-001
4.67956378E-001
4.14846949E-001
3.75207086E-001
2.76365016E-001
3.12613244E-001
4.30210161E-001
3.50146412E-001
4.59053252E-001
4.67128341E-001
4.42692182E-001
2.83885755E-001
3.20420708E-001
4.00541748E-001
3.79994930E-001
4.65023107E-001
4.52987654E-001
4.18389607E-001
2.43123072E-001
3.56924957E-001
4.32936388E-001
3.30746973E-001
2.92864750E-001
4.61319545E-001
2.52672398E-001
4.45571690E-001
3.85757047E-001
2.66823067E-001
4.05274017E-001
3.63898877E-001
3.04028832E-001
4.21946636E-001
3.39781223E-001
4.56170090E-001
4.36624984E-001
2.23317137E-001
2.74063783E-001
3.11431966E-001
4.49539090E-001
3.91103400E-001
3.69501147E-001
2.33128081E-001
4.09516940E-001
2.85682742E-001
3.46451102E-001
4.26468360E-001
3.21773974E-001
2.42979432E-001
4.41459444E-001
2.55653335E-001
3.75828144E-001
3.96070410E-001
3.52731694E-001
2.04198944E-001
2.93025814E-001
4.14821158E-001
3.28482520E-001
2.66232204E-001
4.31973240E-001
2.13707883E-001
3.03052107E-001
4.02223871E-001
3.81404901E-001
3.59954962E-001
2.23616097E-001
2.74522522E-001
3.35115360E-001
4.21124698E-001
1.85909762E-001
3.10126327E-001
2.33165074E-001
2.84028642E-001
3.66014038E-001
3.88235141E-001
3.43167792E-001
2.45112635E-001
4.08999940E-001
3.19790265E-001
2.55659904E-001
1.91113680E-001
2.92237289E-001
1.68386725E-001
3.73646501E-001
2.65007170E-001
3.95685934E-001
2.02920045E-001
3.49685583E-001
1.76048769E-001
3.26250557E-001
3.01757460E-001
2.13218687E-001
2.73834447E-001
3.57843621E-001
3.81310079E-001
3.32949073E-001
1.51592922E-001
3.08625685E-001
2.35551939E-001
2.46022062E-001
2.83373367E-001
2.22911082E-001
1.60029293E-001
3.65996565E-001
3.41707843E-001
1.70870500E-001
1.82769802E-001
2.54988172E-001
2.92569666E-001
3.15438356E-001
1.35480608E-001
1.93055638E-001
1.43604042E-001
2.62946433E-001
3.49892651E-001
2.03841193E-001
3.24672106E-001
3.00353747E-001
2.15432773E-001
2.29718833E-001
1.51805615E-001
2.74195257E-001
1.64323352E-001
1.19970791E-001
3.33123567E-001
1.73972089E-001
1.27841471E-001
3.07523528E-001
2.82500187E-001
2.40033414E-001
1.85025077E-001
1.35121174E-001
1.04999229E-001
1.94971105E-001
3.15824318E-001
1.45883561E-001
2.89760266E-001
1.12648837E-001
2.51283953E-001
2.64197279E-001
2.05665628E-001
1.56532543E-001
1.19808732E-001
9.04258587E-002
1.66130494E-001
2.15630353E-001
2.98311581E-001
9.64672345E-002
2.72457846E-001
1.76840202E-001
2.28222906E-001
1.27005561E-001
1.86780362E-001
7.60571159E-002
1.37026322E-001
2.80921450E-001
2.52454194E-001
8.36577866E-002
1.47287670E-001
2.34910731E-001
2.08352760E-001
1.08200113E-001
1.55808888E-001
1.89852405E-001
6.15912689E-002
9.09255643E-002
2.63766749E-001
1.67884014E-001
6.79825053E-002
1.16074501E-001
2.17017305E-001
2.38058247E-001
1.28644257E-001
4.63025882E-002
1.38102816E-001
1.70969405E-001
5.52296267E-002
2.46925740E-001
2.22427307E-001
6.56002329E-002
1.98343832E-001
2.81738548E-002
1.79240056E-001
9.28411888E-002
3.85432000E-002
2.30441603E-001
1.38345274E-001
1.05225961E-001
2.06508876E-001
1.51731264E-001
4.81385765E-017
1.20502327E-001
2.53778851E-002
1.60560382E-001
1.82521884E-001
6.93950771E-002
4.08093280E-002
2.14324611E-001
1.91012677E-001
-1.30104261E-017
1.21072711E-002
8.79742642E-002
1.68153645E-001
5.16548319E-002
1.19763483E-001
1.98619768E-001
7.30408728E-002
2.29856923E-002
1.04281872E-001
-1.25767452E-016
1.01849483E-002
1.41920212E-001
1.75910514E-001
1.26541424E-001
1.53697668E-001
8.86714541E-002
5.62173000E-002
6.49178863E-003
1.83320703E-001
-1.47017815E-016
1.61220778E-001
7.35267029E-002
1.04174586E-001
1.55739790E-002
3.22760593E-002
6.42600260E-003
1.68411522E-001
5.88638842E-002
8.86205652E-002
-2.99239800E-016
1.46930207E-001
1.08944192E-001
1.26000089E-001
7.37786536E-002
4.37657180E-002
4.89273311E-003
1.53924509E-001
1.29066259E-002
-2.16623594E-016
5.98183610E-002
1.31643070E-001
8.84432770E-002
3.12315538E-002
1.39810180E-001
4.94851968E-003
4.67857212E-002
7.29248577E-002
-1.35308431E-016
1.19456280E-001
9.97561365E-002
5.91548358E-002
1.88522916E-002
3.46807118E-002
3.45732816E-003
1.26066173E-001
7.92505782E-003
-1.01156063E-016
4.67233263E-002
7.11321734E-002
1.04815516E-001
2.44221033E-002
3.05913144E-003
1.12606092E-001
5.70623270E-002
3.56346115E-002
7.86267785E-002
9.30878472E-002
-8.93382590E-017
3.68117188E-003
9.93765028E-002
4.48143698E-002
8.83718548E-003
1.59269183E-002
7.95282641E-002
2.23400989E-002
7.89299182E-017
3.44835773E-002
3.07671527E-003
8.62772182E-002
6.69952575E-002
4.06575726E-002
5.05677533E-002
3.32551442E-003
2.16840434E-017
7.30893328E-002
2.15903338E-002
5.21153359E-002
7.39841463E-003
5.95972997E-002
-1.30104261E-016
1.29950555E-002
2.71738670E-003
2.56291533E-002
3.16127463E-002
3.82309412E-002
3.15292521E-003
4.50425006E-002
-1.12757026E-017
1.79437253E-002
2.47309553E-002
6.57649387E-003
3.28928378E-003
2.00329529E-002
2.76615922E-002
-2.04263689E-016
1.56290953E-002
3.07307610E-003
6.15951147E-003
7.97972799E-017
8.71357395E-003
-8.28330460E-017
9.14105494E-003
3.04680727E-003
1.17836079E-002
1.05935530E-002
-6.93889390E-017
7.85988475E-003
-2.41126563E-016
8.15261311E-003
2.55262360E-003
3.09412159E-003
-1.14491749E-016
4.87971946E-003
3.72965547E-017
4.48979739E-003
2.91554386E-003
4.79058765E-003
4.12815447E-003
3.33489936E-003
-2.11636264E-016
-1.84748050E-016
3.95441745E-003
3.84734059E-003
3.22443332E-003
-1.14491749E-016
-1.28369537E-016
-5.55111512E-017
-1.57859836E-016
-2.46330734E-016
-1.31838984E-016
-1.66533454E-016
-2.42861287E-016
0.00000000E+000
