# vtk DataFile Version 1.0
ECM-CELL DIFFUSION-MECHANICS
ASCII

DATASET UNSTRUCTURED_GRID
POINTS    12932 float
1.50000000E+001 3.00000000E+001 0.00000000E+000
1.48250000E+001 2.98250000E+001 0.00000000E+000
1.47500000E+001 3.00000000E+001 0.00000000E+000
1.47080000E+001 2.98790000E+001 0.00000000E+000
1.45530000E+001 2.98140000E+001 0.00000000E+000
1.46490000E+001 2.96490000E+001 0.00000000E+000
1.45000000E+001 3.00000000E+001 0.00000000E+000
1.43550000E+001 2.97330000E+001 0.00000000E+000
1.44740000E+001 2.94740000E+001 0.00000000E+000
1.42500000E+001 3.00000000E+001 0.00000000E+000
1.41420000E+001 2.96430000E+001 0.00000000E+000
1.42980000E+001 2.92980000E+001 0.00000000E+000
1.40000000E+001 3.00000000E+001 0.00000000E+000
1.39160000E+001 2.95500000E+001 0.00000000E+000
1.41230000E+001 2.91230000E+001 0.00000000E+000
1.37500000E+001 3.00000000E+001 0.00000000E+000
1.36310000E+001 2.94330000E+001 0.00000000E+000
1.39470000E+001 2.89470000E+001 0.00000000E+000
1.35000000E+001 3.00000000E+001 0.00000000E+000
1.37720000E+001 2.87720000E+001 0.00000000E+000
1.32500000E+001 3.00000000E+001 0.00000000E+000
1.35000000E+001 2.90720000E+001 0.00000000E+000
1.32840000E+001 2.95930000E+001 0.00000000E+000
1.32300000E+001 2.92620000E+001 0.00000000E+000
1.35960000E+001 2.85960000E+001 0.00000000E+000
1.30000000E+001 3.00000000E+001 0.00000000E+000
1.33690000E+001 2.88220000E+001 0.00000000E+000
1.30010000E+001 2.96710000E+001 0.00000000E+000
1.31380000E+001 2.89990000E+001 0.00000000E+000
1.29710000E+001 2.93780000E+001 0.00000000E+000
1.34210000E+001 2.84210000E+001 0.00000000E+000
1.27500000E+001 3.00000000E+001 0.00000000E+000
1.32200000E+001 2.86120000E+001 0.00000000E+000
1.29120000E+001 2.91260000E+001 0.00000000E+000
1.27500000E+001 2.97150000E+001 0.00000000E+000
1.30220000E+001 2.87800000E+001 0.00000000E+000
1.27290000E+001 2.94480000E+001 0.00000000E+000
1.28250000E+001 2.89140000E+001 0.00000000E+000
1.26940000E+001 2.92120000E+001 0.00000000E+000
1.32460000E+001 2.82460000E+001 0.00000000E+000
1.30660000E+001 2.84250000E+001 0.00000000E+000
1.25000000E+001 3.00000000E+001 0.00000000E+000
1.25030000E+001 2.97370000E+001 0.00000000E+000
1.28860000E+001 2.85890000E+001 0.00000000E+000
1.25000000E+001 2.94870000E+001 0.00000000E+000
1.26390000E+001 2.90120000E+001 0.00000000E+000
1.27120000E+001 2.87320000E+001 0.00000000E+000
1.24880000E+001 2.92610000E+001 0.00000000E+000
1.25610000E+001 2.88520000E+001 0.00000000E+000
1.24680000E+001 2.90680000E+001 0.00000000E+000
1.30700000E+001 2.80700000E+001 0.00000000E+000
1.29040000E+001 2.82470000E+001 0.00000000E+000
1.22620000E+001 2.97460000E+001 0.00000000E+000
1.22500000E+001 3.00000000E+001 0.00000000E+000
1.24510000E+001 2.89340000E+001 0.00000000E+000
1.27360000E+001 2.84140000E+001 0.00000000E+000
1.22700000E+001 2.95030000E+001 0.00000000E+000
1.25750000E+001 2.85720000E+001 0.00000000E+000
1.22760000E+001 2.92740000E+001 0.00000000E+000
1.24320000E+001 2.87260000E+001 0.00000000E+000
1.22870000E+001 2.90650000E+001 0.00000000E+000
1.23260000E+001 2.88810000E+001 0.00000000E+000
1.27360000E+001 2.80720000E+001 0.00000000E+000
1.28950000E+001 2.78950000E+001 0.00000000E+000
1.20160000E+001 2.97490000E+001 0.00000000E+000
1.25740000E+001 2.82430000E+001 0.00000000E+000
1.20000000E+001 3.00000000E+001 0.00000000E+000
1.20310000E+001 2.95040000E+001 0.00000000E+000
1.24180000E+001 2.84150000E+001 0.00000000E+000
1.20490000E+001 2.92640000E+001 0.00000000E+000
1.22630000E+001 2.85940000E+001 0.00000000E+000
1.20750000E+001 2.90280000E+001 0.00000000E+000
1.21320000E+001 2.87940000E+001 0.00000000E+000
1.25630000E+001 2.78940000E+001 0.00000000E+000
1.27190000E+001 2.77190000E+001 0.00000000E+000
1.24040000E+001 2.80680000E+001 0.00000000E+000
1.17680000E+001 2.97500000E+001 0.00000000E+000
1.17500000E+001 3.00000000E+001 0.00000000E+000
1.17850000E+001 2.95010000E+001 0.00000000E+000
1.22400000E+001 2.82450000E+001 0.00000000E+000
1.18050000E+001 2.92510000E+001 0.00000000E+000
1.20620000E+001 2.84360000E+001 0.00000000E+000
1.18230000E+001 2.89850000E+001 0.00000000E+000
1.18530000E+001 2.86690000E+001 0.00000000E+000
1.23900000E+001 2.77170000E+001 0.00000000E+000
1.25440000E+001 2.75440000E+001 0.00000000E+000
1.22320000E+001 2.78880000E+001 0.00000000E+000
1.15200000E+001 2.97490000E+001 0.00000000E+000
1.15360000E+001 2.95000000E+001 0.00000000E+000
1.15000000E+001 3.00000000E+001 0.00000000E+000
1.20650000E+001 2.80600000E+001 0.00000000E+000
1.15510000E+001 2.92500000E+001 0.00000000E+000
1.18870000E+001 2.82330000E+001 0.00000000E+000
1.15580000E+001 2.89930000E+001 0.00000000E+000
1.16910000E+001 2.83980000E+001 0.00000000E+000
1.15480000E+001 2.87310000E+001 0.00000000E+000
1.22160000E+001 2.75380000E+001 0.00000000E+000
1.23680000E+001 2.73680000E+001 0.00000000E+000
1.20590000E+001 2.77050000E+001 0.00000000E+000
1.12680000E+001 2.97500000E+001 0.00000000E+000
1.12850000E+001 2.95020000E+001 0.00000000E+000
1.12500000E+001 3.00000000E+001 0.00000000E+000
1.18920000E+001 2.78710000E+001 0.00000000E+000
1.12990000E+001 2.92530000E+001 0.00000000E+000
1.17200000E+001 2.80360000E+001 0.00000000E+000
1.13060000E+001 2.90050000E+001 0.00000000E+000
1.14750000E+001 2.84990000E+001 0.00000000E+000
1.15450000E+001 2.81900000E+001 0.00000000E+000
1.13000000E+001 2.87610000E+001 0.00000000E+000
1.21930000E+001 2.71930000E+001 0.00000000E+000
1.20380000E+001 2.73560000E+001 0.00000000E+000
1.18790000E+001 2.75210000E+001 0.00000000E+000
1.12810000E+001 2.85500000E+001 0.00000000E+000
1.10140000E+001 2.97500000E+001 0.00000000E+000
1.13780000E+001 2.83160000E+001 0.00000000E+000
1.10320000E+001 2.95030000E+001 0.00000000E+000
1.10000000E+001 3.00000000E+001 0.00000000E+000
1.17130000E+001 2.76860000E+001 0.00000000E+000
1.10480000E+001 2.92560000E+001 0.00000000E+000
1.10600000E+001 2.90090000E+001 0.00000000E+000
1.12630000E+001 2.84020000E+001 0.00000000E+000
1.15470000E+001 2.78530000E+001 0.00000000E+000
1.10730000E+001 2.87640000E+001 0.00000000E+000
1.13850000E+001 2.80150000E+001 0.00000000E+000
1.10900000E+001 2.85380000E+001 0.00000000E+000
1.12400000E+001 2.81790000E+001 0.00000000E+000
1.11370000E+001 2.83450000E+001 0.00000000E+000
1.20180000E+001 2.70180000E+001 0.00000000E+000
1.18590000E+001 2.71760000E+001 0.00000000E+000
1.16980000E+001 2.73380000E+001 0.00000000E+000
1.07610000E+001 2.97510000E+001 0.00000000E+000
1.07500000E+001 3.00000000E+001 0.00000000E+000
1.07740000E+001 2.95030000E+001 0.00000000E+000
1.15340000E+001 2.75060000E+001 0.00000000E+000
1.07930000E+001 2.92540000E+001 0.00000000E+000
1.08150000E+001 2.90030000E+001 0.00000000E+000
1.13700000E+001 2.76740000E+001 0.00000000E+000
1.08420000E+001 2.87490000E+001 0.00000000E+000
1.12140000E+001 2.78560000E+001 0.00000000E+000
1.08830000E+001 2.84990000E+001 0.00000000E+000
1.10690000E+001 2.80450000E+001 0.00000000E+000
1.09540000E+001 2.82600000E+001 0.00000000E+000
1.18420000E+001 2.68420000E+001 0.00000000E+000
1.16810000E+001 2.69990000E+001 0.00000000E+000
1.15190000E+001 2.71600000E+001 0.00000000E+000
1.05090000E+001 2.97510000E+001 0.00000000E+000
1.05000000E+001 3.00000000E+001 0.00000000E+000
1.05220000E+001 2.95020000E+001 0.00000000E+000
1.05400000E+001 2.92500000E+001 0.00000000E+000
1.13530000E+001 2.73240000E+001 0.00000000E+000
1.05680000E+001 2.89920000E+001 0.00000000E+000
1.11860000E+001 2.74980000E+001 0.00000000E+000
1.06040000E+001 2.87260000E+001 0.00000000E+000
1.10310000E+001 2.76880000E+001 0.00000000E+000
1.06600000E+001 2.84490000E+001 0.00000000E+000
1.08770000E+001 2.79120000E+001 0.00000000E+000
1.07490000E+001 2.81660000E+001 0.00000000E+000
1.16670000E+001 2.66670000E+001 0.00000000E+000
1.15040000E+001 2.68230000E+001 0.00000000E+000
1.13380000E+001 2.69820000E+001 0.00000000E+000
1.02570000E+001 2.97520000E+001 0.00000000E+000
1.02500000E+001 3.00000000E+001 0.00000000E+000
1.02680000E+001 2.95020000E+001 0.00000000E+000
1.02870000E+001 2.92480000E+001 0.00000000E+000
1.11650000E+001 2.71460000E+001 0.00000000E+000
1.03150000E+001 2.89870000E+001 0.00000000E+000
1.03570000E+001 2.87080000E+001 0.00000000E+000
1.09910000E+001 2.73230000E+001 0.00000000E+000
1.08460000E+001 2.75290000E+001 0.00000000E+000
1.04230000E+001 2.84040000E+001 0.00000000E+000
1.05200000E+001 2.80850000E+001 0.00000000E+000
1.06600000E+001 2.77490000E+001 0.00000000E+000
1.14910000E+001 2.64910000E+001 0.00000000E+000
1.13260000E+001 2.66450000E+001 0.00000000E+000
1.00000000E+001 3.00000000E+001 0.00000000E+000
1.00050000E+001 2.97540000E+001 0.00000000E+000
1.11530000E+001 2.68030000E+001 0.00000000E+000
1.00170000E+001 2.95030000E+001 0.00000000E+000
1.00360000E+001 2.92490000E+001 0.00000000E+000
1.06220000E+001 2.75360000E+001 0.00000000E+000
1.06940000E+001 2.73920000E+001 0.00000000E+000
1.00660000E+001 2.89850000E+001 0.00000000E+000
1.09680000E+001 2.69690000E+001 0.00000000E+000
1.01080000E+001 2.87040000E+001 0.00000000E+000
1.01670000E+001 2.83910000E+001 0.00000000E+000
1.07590000E+001 2.71560000E+001 0.00000000E+000
1.04200000E+001 2.77380000E+001 0.00000000E+000
1.04950000E+001 2.75230000E+001 0.00000000E+000
1.02390000E+001 2.80330000E+001 0.00000000E+000
1.05420000E+001 2.73640000E+001 0.00000000E+000
1.13160000E+001 2.63160000E+001 0.00000000E+000
1.11480000E+001 2.64670000E+001 0.00000000E+000
9.75000000E+000 3.00000000E+001 0.00000000E+000
9.75470000E+000 2.97550000E+001 0.00000000E+000
1.09740000E+001 2.66200000E+001 0.00000000E+000
9.76590000E+000 2.95060000E+001 0.00000000E+000
1.04340000E+001 2.73730000E+001 0.00000000E+000
1.03700000E+001 2.74880000E+001 0.00000000E+000
9.78180000E+000 2.92560000E+001 0.00000000E+000
1.05280000E+001 2.72030000E+001 0.00000000E+000
1.02710000E+001 2.76520000E+001 0.00000000E+000
9.80900000E+000 2.89970000E+001 0.00000000E+000
1.07940000E+001 2.67720000E+001 0.00000000E+000
9.84910000E+000 2.87260000E+001 0.00000000E+000
9.89920000E+000 2.84370000E+001 0.00000000E+000
1.01270000E+001 2.78220000E+001 0.00000000E+000
[...]
POINT_DATA    12932
SCALARS Ux float
LOOKUP_TABLE default
1.00000000E+000
1.00000000E+000
1.00909175E+000
1.00766245E+000
1.01739048E+000
1.00000000E+000
1.04046538E+000
1.05713503E+000
1.00000000E+000
1.08184194E+000
1.09388741E+000
1.00000000E+000
1.16628211E+000
1.15820090E+000
1.00000000E+000
1.26689067E+000
1.24657056E+000
1.00000000E+000
1.40541820E+000
1.00000000E+000
1.48191314E+000
1.20716295E+000
1.44167441E+000
1.39496754E+000
1.00000000E+000
1.59347820E+000
1.19507788E+000
1.58310783E+000
1.36271085E+000
1.56857247E+000
1.00000000E+000
1.72496554E+000
1.18402283E+000
1.51377361E+000
1.71752920E+000
1.34708929E+000
1.69326495E+000
1.47678544E+000
1.65867455E+000
1.00000000E+000
1.18020433E+000
1.87080140E+000
1.85856648E+000
1.34620264E+000
1.83037622E+000
1.64371777E+000
1.49764748E+000
1.79148445E+000
1.61002897E+000
1.74171609E+000
1.00000000E+000
1.18394798E+000
2.00904978E+000
2.02795164E+000
1.72159548E+000
1.35820051E+000
1.97618307E+000
1.51745435E+000
1.92799324E+000
1.66035416E+000
1.86449510E+000
1.76279317E+000
1.19184411E+000
1.00000000E+000
2.17295785E+000
1.37465822E+000
2.19530973E+000
2.13504816E+000
1.54727416E+000
2.08009203E+000
1.72748446E+000
2.00089770E+000
1.85699332E+000
1.20029526E+000
1.00000000E+000
1.39382040E+000
2.34694819E+000
2.37202181E+000
2.30656784E+000
1.58581340E+000
2.24765054E+000
1.77103978E+000
2.16891825E+000
2.04817465E+000
1.20951683E+000
1.00000000E+000
1.41381428E+000
2.52991944E+000
2.48937404E+000
2.55784542E+000
1.61747592E+000
2.43229665E+000
1.82744258E+000
2.36466885E+000
2.05797070E+000
2.31693762E+000
1.21955234E+000
1.00000000E+000
1.43370712E+000
2.72611891E+000
2.68430271E+000
2.75319795E+000
1.64986408E+000
2.62835827E+000
1.86437104E+000
2.56474115E+000
2.24730875E+000
2.06674767E+000
2.49165179E+000
1.00000000E+000
1.22992151E+000
1.45774609E+000
2.42462902E+000
2.93427080E+000
2.18158340E+000
2.89121473E+000
2.95826737E+000
1.68427214E+000
2.83459100E+000
2.76455287E+000
2.44223318E+000
1.90723446E+000
2.67917811E+000
2.11031948E+000
2.58519768E+000
2.31861927E+000
2.41651833E+000
1.00000000E+000
1.24062020E+000
1.48016936E+000
3.15142087E+000
3.17260398E+000
3.11286489E+000
1.72004249E+000
3.05306699E+000
2.97370154E+000
1.95318757E+000
2.86834540E+000
2.17929085E+000
2.73838125E+000
2.38212299E+000
2.56945043E+000
1.00000000E+000
1.25188184E+000
1.50283337E+000
3.37639916E+000
3.39568764E+000
3.33837341E+000
3.27982038E+000
1.75586856E+000
3.19310898E+000
2.00623348E+000
3.07651583E+000
2.24207481E+000
2.88003272E+000
2.49272940E+000
2.75543352E+000
1.00000000E+000
1.26310377E+000
1.52773749E+000
3.60999211E+000
3.62673896E+000
3.57407777E+000
3.51580859E+000
1.79698664E+000
3.43182076E+000
3.30055591E+000
2.07687686E+000
2.31072679E+000
3.12740921E+000
2.88428124E+000
2.60536610E+000
1.00000000E+000
1.27435470E+000
3.86583123E+000
3.85117716E+000
1.55498990E+000
3.81500897E+000
3.75841329E+000
2.53813509E+000
2.37994816E+000
3.67342601E+000
1.84865300E+000
3.56414966E+000
3.33560313E+000
2.17221205E+000
2.80827450E+000
2.62809752E+000
3.18188843E+000
2.50258531E+000
1.00000000E+000
1.28586139E+000
4.11267129E+000
4.09812921E+000
1.57483708E+000
4.06408495E+000
2.60407548E+000
2.67256538E+000
4.01167085E+000
2.40918280E+000
2.92423183E+000
3.93477391E+000
1.86468180E+000
3.82903952E+000
3.76632448E+000
3.15835011E+000
2.59128202E+000
2.16964053E+000
3.50556111E+000
2.82426412E+000
2.96915004E+000
3.13645239E+000
2.40343769E+000
1.00000000E+000
1.29608567E+000
3.35583332E+000
4.35095999E+000
4.36678024E+000
4.32010015E+000
1.58984928E+000
4.26400647E+000
2.64525467E+000
4.19134535E+000
4.09826215E+000
1.88898108E+000
2.87770306E+000
3.98367335E+000
3.28973012E+000
3.12214732E+000
2.17383290E+000
3.85407993E+000
2.43934234E+000
3.75633241E+000
1.00000000E+000
2.69968589E+000
1.30340097E+000
4.61388073E+000
4.62825464E+000
4.57888161E+000
4.52292498E+000
1.60593403E+000
4.45170005E+000
2.97273574E+000
4.35982483E+000
1.91377780E+000
4.25167035E+000
3.53888273E+000
4.13191033E+000
2.20867370E+000
3.29311334E+000
2.49116048E+000
4.01697781E+000
2.76051892E+000
1.00000000E+000
3.03386048E+000
1.31115670E+000
4.88025893E+000
4.89670340E+000
4.84704839E+000
4.79153297E+000
4.71467500E+000
1.62846098E+000
3.60147489E+000
4.62237995E+000
4.51552384E+000
3.92213098E+000
3.29868977E+000
1.95191230E+000
3.47984524E+000
4.40805829E+000
2.26961952E+000
3.44758420E+000
2.55981462E+000
2.84398028E+000
4.30910809E+000
3.81920613E+000
3.11411814E+000
1.00000000E+000
3.35276139E+000
1.32478100E+000
5.15346120E+000
3.73297691E+000
5.12024619E+000
5.06374233E+000
5.17183887E+000
4.98707420E+000
4.21991097E+000
3.53082408E+000
4.89462694E+000
1.65530944E+000
4.78968186E+000
1.99943467E+000
4.68416996E+000
2.35837540E+000
2.65453585E+000
2.94679794E+000
4.58565125E+000
4.19701207E+000
3.21543462E+000
3.44709096E+000
1.00000000E+000
3.64834548E+000
4.50167175E+000
1.33496686E+000
5.42835880E+000
5.39298181E+000
5.34058876E+000
5.26487718E+000
5.45362014E+000
5.17108344E+000
5.06544523E+000
3.94866623E+000
1.68078620E+000
4.96194157E+000
4.40991099E+000
2.04536038E+000
3.06465210E+000
4.86778530E+000
2.76648825E+000
3.34781691E+000
3.57278291E+000
3.72056686E+000
2.46774988E+000
4.77323406E+000
1.00000000E+000
4.38761639E+000
5.67549154E+000
1.34520831E+000
5.61987756E+000
5.71317067E+000
5.54627655E+000
5.45607628E+000
5.74074535E+000
5.35241096E+000
4.68490489E+000
1.69750055E+000
5.24969114E+000
4.04609316E+000
2.66606313E+000
2.92051761E+000
3.18777794E+000
2.05819119E+000
3.45177235E+000
3.75960624E+000
5.15434295E+000
4.58414889E+000
2.42242744E+000
5.06211192E+000
1.00000000E+000
4.40575450E+000
5.96620636E+000
1.35371352E+000
5.91275162E+000
6.00455071E+000
5.83980967E+000
5.74930297E+000
2.69134387E+000
6.03253375E+000
4.95515075E+000
5.65571723E+000
2.99027594E+000
1.70925258E+000
5.55789717E+000
3.28724269E+000
4.78236671E+000
3.58511760E+000
2.07115228E+000
5.46378976E+000
3.88765903E+000
4.22255155E+000
2.41960888E+000
5.37474947E+000
4.50745369E+000
1.00000000E+000
2.74131936E+000
4.68466778E+000
6.26617184E+000
6.21290296E+000
1.36252298E+000
6.30484093E+000
6.14090951E+000
6.05408400E+000
6.32858953E+000
5.27503278E+000
5.95900602E+000
3.05792397E+000
1.72488423E+000
5.86667665E+000
3.37541341E+000
3.69163882E+000
5.12692414E+000
2.08742208E+000
5.78369319E+000
4.02145303E+000
2.44068241E+000
4.37286332E+000
4.96353787E+000
5.70106624E+000
1.00000000E+000
4.72749552E+000
2.78467722E+000
6.56725936E+000
6.51476473E+000
1.36800854E+000
6.60651297E+000
6.44624823E+000
6.62933640E+000
3.12108440E+000
6.36551842E+000
5.61281215E+000
6.27835705E+000
3.44911016E+000
1.73676968E+000
6.19249838E+000
3.78562363E+000
2.10241251E+000
5.48906309E+000
6.11488948E+000
4.14284585E+000
2.46024398E+000
4.54765457E+000
5.39770100E+000
1.00000000E+000
6.03832459E+000
2.81691672E+000
1.37360833E+000
3.16496284E+000
6.87511520E+000
6.82322797E+000
6.91453219E+000
6.75813404E+000
6.93422805E+000
6.68365696E+000
4.98285104E+000
5.95529312E+000
3.51189831E+000
6.60447917E+000
1.74464590E+000
6.52617581E+000
3.86748572E+000
2.11077626E+000
5.84461005E+000
4.24665062E+000
6.45581335E+000
2.47713797E+000
2.83780911E+000
1.00000000E+000
6.38119150E+000
4.65361248E+000
5.68285398E+000
3.20159465E+000
1.37682256E+000
7.13435426E+000
7.18511563E+000
7.22198199E+000
7.07427613E+000
7.24274224E+000
7.00940347E+000
3.56493467E+000
5.55676743E+000
1.74682638E+000
6.29835359E+000
6.93740071E+000
5.12241465E+000
3.94716494E+000
2.11462924E+000
6.86885179E+000
2.48289560E+000
6.19711507E+000
4.34626603E+000
6.79962561E+000
2.85665593E+000
1.00000000E+000
5.87246260E+000
3.23320557E+000
5.49890232E+000
6.72966949E+000
4.76579379E+000
1.37601661E+000
7.49560014E+000
7.44821947E+000
7.53020970E+000
6.04965856E+000
7.39497773E+000
7.55510497E+000
3.62315724E+000
7.33597807E+000
1.74927919E+000
6.64720429E+000
7.27387395E+000
5.17530853E+000
2.11990436E+000
4.02893101E+000
5.80739068E+000
2.49447517E+000
7.21177520E+000
6.55418854E+000
2.87397417E+000
4.44901261E+000
7.14665562E+000
5.55007863E+000
1.00000000E+000
3.26164220E+000
6.10892309E+000
7.07866064E+000
1.38335352E+000
4.86910298E+000
6.46558438E+000
7.81102437E+000
7.84278555E+000
7.76802911E+000
7.87053749E+000
7.72009913E+000
1.76056537E+000
3.67198497E+000
7.66896402E+000
5.84825829E+000
2.13692521E+000
6.99851220E+000
5.26874767E+000
7.61642639E+000
2.51029025E+000
4.10350045E+000
6.41066526E+000
7.56331449E+000
6.16967486E+000
6.90977235E+000
2.88705225E+000
5.65278931E+000
7.49749997E+000
6.33972351E+000
4.55884116E+000
3.27549531E+000
1.00000000E+000
6.81339437E+000
1.39929749E+000
7.42387675E+000
1.79003583E+000
5.99884914E+000
8.13059607E+000
8.16062072E+000
8.09190517E+000
4.98046469E+000
2.16651537E+000
8.18907340E+000
8.04983633E+000
6.69195351E+000
3.69446390E+000
7.34192223E+000
2.52844439E+000
8.00911906E+000
6.27844057E+000
6.51975258E+000
5.39173460E+000
7.96291702E+000
2.90340066E+000
7.25741151E+000
7.91168788E+000
4.16741748E+000
5.79515051E+000
3.27174186E+000
7.14964024E+000
7.84190906E+000
1.00000000E+000
1.42737224E+000
2.21777829E+000
1.84637777E+000
7.76506975E+000
6.99154009E+000
2.53508598E+000
6.18509876E+000
4.69292521E+000
8.48676468E+000
8.46004318E+000
8.42816315E+000
8.50987890E+000
6.75962949E+000
6.49102172E+000
7.68204392E+000
8.39025341E+000
3.67634206E+000
2.91389962E+000
5.11172627E+000
8.35538983E+000
7.59400209E+000
8.31426644E+000
5.54613288E+000
3.21920568E+000
2.55390688E+000
7.48481902E+000
8.26317528E+000
2.29662077E+000
5.97031348E+000
8.18963203E+000
1.94567283E+000
1.00000000E+000
4.22422940E+000
1.46947700E+000
7.33623902E+000
8.09519148E+000
7.06526798E+000
2.87596758E+000
3.17232162E+000
8.00735349E+000
8.81368156E+000
8.79028786E+000
6.43201545E+000
8.83203012E+000
3.59803210E+000
6.77454407E+000
8.76689124E+000
8.73923056E+000
7.92061321E+000
8.71321750E+000
2.48865389E+000
5.31434599E+000
7.81960276E+000
4.77952163E+000
8.67599474E+000
5.75414951E+000
3.39595685E+000
8.62275747E+000
7.68406028E+000
1.00000000E+000
8.54723410E+000
1.52135125E+000
2.09491308E+000
6.11312337E+000
8.31384184E+000
8.41262176E+000
3.08823039E+000
7.59352617E+000
8.23644545E+000
9.15465910E+000
9.14520056E+000
9.12892570E+000
2.70748742E+000
4.12728754E+000
9.11173266E+000
9.09310271E+000
8.15129706E+000
7.09453582E+000
2.38300011E+000
9.07228339E+000
5.17595889E+000
6.72205953E+000
9.03733632E+000
8.52701782E+000
5.59680902E+000
3.65745494E+000
6.20270839E+000
8.05509125E+000
5.91777518E+000
8.98427804E+000
4.77313896E+000
1.00000000E+000
1.52137211E+000
3.25118729E+000
8.56504256E+000
8.90464787E+000
2.04049792E+000
2.84021025E+000
8.79447917E+000
2.42098017E+000
7.91712087E+000
9.47784037E+000
9.47486062E+000
9.46649133E+000
8.47489241E+000
9.45656828E+000
5.19847043E+000
9.44661498E+000
6.64330263E+000
9.42843658E+000
8.40565968E+000
8.79964506E+000
9.40046865E+000
4.37308687E+000
7.81120992E+000
5.64826218E+000
3.86088881E+000
1.00000000E+000
9.35235738E+000
1.53179314E+000
3.41443301E+000
2.04233891E+000
2.95970402E+000
2.50795404E+000
8.33099943E+000
7.32206893E+000
9.28796368E+000
8.81375551E+000
4.81694067E+000
9.80153613E+000
9.79981872E+000
6.29632242E+000
9.79809782E+000
9.21853416E+000
9.79497121E+000
8.76812846E+000
9.79472114E+000
5.15355234E+000
8.25901518E+000
7.02115152E+000
9.19791838E+000
9.77873317E+000
9.75892214E+000
1.00000000E+000
8.72600614E+000
1.55205555E+000
9.71442332E+000
2.08131467E+000
9.16639705E+000
2.59104490E+000
3.57310458E+000
3.08648978E+000
4.06146939E+000
7.99919251E+000
4.54320931E+000
5.69851560E+000
9.66368088E+000
8.50772574E+000
1.01254438E+001
1.01248992E+001
4.99506001E+000
1.01232387E+001
6.87749727E+000
7.70119951E+000
9.61081981E+000
8.73463086E+000
5.36248061E+000
1.01272058E+001
9.13856181E+000
1.01294942E+001
7.51216602E+000
9.57170318E+000
6.35855465E+000
1.01194842E+001
9.10429211E+000
8.62165041E+000
1.01060930E+001
1.00000000E+000
1.58015688E+000
9.53739729E+000
1.00677899E+001
2.13873210E+000
2.68333124E+000
7.17362467E+000
3.21506366E+000
3.72457110E+000
8.49236605E+000
4.23802023E+000
1.00277201E+001
9.06151922E+000
1.04490202E+001
1.04495194E+001
4.73719500E+000
1.04477458E+001
6.81865273E+000
9.50626806E+000
5.76658463E+000
5.23889673E+000
9.97959937E+000
1.04530944E+001
1.04531820E+001
7.68636475E+000
7.47563671E+000
9.93675081E+000
8.98958508E+000
8.23204825E+000
1.04499276E+001
9.47171332E+000
7.24380269E+000
1.04400842E+001
1.00000000E+000
9.90466492E+000
6.35105318E+000
1.60470388E+000
1.04095165E+001
2.19515144E+000
8.87542660E+000
2.76718176E+000
9.43154765E+000
3.32912107E+000
1.03727396E+001
3.86944463E+000
1.07719316E+001
7.66409200E+000
1.07724907E+001
9.87351489E+000
4.40504940E+000
1.07696682E+001
1.03335572E+001
1.07682790E+001
4.92292224E+000
6.85657569E+000
7.94518625E+000
9.36835443E+000
1.07745937E+001
5.43046969E+000
1.02944427E+001
8.75548051E+000
9.84510083E+000
1.07706749E+001
8.29871600E+000
5.98891521E+000
1.07630651E+001
1.02617225E+001
7.27331871E+000
1.00000000E+000
9.28930877E+000
1.63119620E+000
1.07441790E+001
9.80977160E+000
2.24331147E+000
2.84954763E+000
1.07140050E+001
7.61902563E+000
3.44116794E+000
1.02363255E+001
6.51414523E+000
1.10932024E+001
4.01973348E+000
1.10928660E+001
1.10869711E+001
8.74306323E+000
1.06780873E+001
1.10847428E+001
4.57736606E+000
9.75745918E+000
8.08425962E+000
9.25949778E+000
1.10878675E+001
5.12167862E+000
1.06403253E+001
1.02145752E+001
7.01148903E+000
1.10889438E+001
8.48674424E+000
5.65308409E+000
1.10794374E+001
1.06065212E+001
9.69453254E+000
1.00000000E+000
1.01878162E+001
1.10608433E+001
9.00967568E+000
1.65936593E+000
7.45467088E+000
6.19121701E+000
8.82324339E+000
2.29993504E+000
1.05800195E+001
1.10388838E+001
2.93598647E+000
3.55546050E+000
7.86860838E+000
1.14114400E+001
1.14077161E+001
1.10071470E+001
1.14032684E+001
9.04086848E+000
4.17145137E+000
9.61532524E+000
1.01479235E+001
6.70901966E+000
1.13997121E+001
1.05652033E+001
4.75633554E+000
1.09705285E+001
1.13972463E+001
8.26770065E+000
1.13954198E+001
5.32564275E+000
8.68463888E+000
1.09325017E+001
7.21194305E+000
1.13893021E+001
1.00838733E+001
9.46892191E+000
1.05714775E+001
5.87797912E+000
9.03802135E+000
1.13770665E+001
1.00000000E+000
1.09045062E+001
9.28922031E+000
1.68678084E+000
2.35663646E+000
1.13543225E+001
7.67491833E+000
3.02333485E+000
6.40988418E+000
1.13220575E+001
3.68087080E+000
1.17225481E+001
1.17268765E+001
1.08896585E+001
1.00252745E+001
1.17152776E+001
1.12861441E+001
8.11765916E+000
1.17090049E+001
4.32424870E+000
1.05593132E+001
1.17030728E+001
6.93303362E+000
4.94838986E+000
8.52073459E+000
1.12463598E+001
1.16988414E+001
8.92426598E+000
1.16999499E+001
5.55006251E+000
1.12104165E+001
1.09325727E+001
1.04955661E+001
7.43282173E+000
1.16866935E+001
9.29322361E+000
1.00000000E+000
9.63972417E+000
1.16623259E+001
1.71176309E+000
1.00358950E+001
6.11507066E+000
2.42169298E+000
1.11953635E+001
1.16278210E+001
7.91422039E+000
3.12947597E+000
1.04291650E+001
1.15883690E+001
3.82719198E+000
6.65689436E+000
1.20332590E+001
1.20389650E+001
1.20238610E+001
1.20174879E+001
1.15456494E+001
8.36685421E+000
4.50056937E+000
1.20104706E+001
1.11946074E+001
1.15064559E+001
1.20069545E+001
7.17742647E+000
8.79502212E+000
5.14860127E+000
1.11060767E+001
1.20037677E+001
1.14745105E+001
9.20037601E+000
1.19922755E+001
1.04879263E+001
5.78135847E+000
1.14942107E+001
1.08821708E+001
7.68312303E+000
1.19688071E+001
9.58233689E+000
1.00000000E+000
1.75103422E+000
1.19320414E+001
2.50756533E+000
9.93156175E+000
6.36060224E+000
1.18871266E+001
3.25709602E+000
1.08937132E+001
1.14381508E+001
8.17435045E+000
1.18439456E+001
1.02717066E+001
3.98426892E+000
1.23380080E+001
1.23290194E+001
1.23474979E+001
1.18053112E+001
1.23237849E+001
6.92080459E+000
1.07600772E+001
1.23176038E+001
1.16709335E+001
4.69346493E+000
8.63798246E+000
1.17599892E+001
1.23144054E+001
7.44427034E+000
1.23094944E+001
9.07510768E+000
5.37364086E+000
1.07458394E+001
1.22970931E+001
9.49371730E+000
1.22755302E+001
6.01391862E+000
7.95761806E+000
1.22385001E+001
1.00000000E+000
1.80429174E+000
1.14814824E+001
1.14556107E+001
1.21901362E+001
9.90235683E+000
2.61057872E+000
1.21496493E+001
3.39734192E+000
1.11830795E+001
6.63420262E+000
8.44741066E+000
1.02631179E+001
1.21089270E+001
1.18512468E+001
4.15835830E+000
1.05360550E+001
1.26296882E+001
1.26402551E+001
1.20549526E+001
1.26521064E+001
1.19666438E+001
1.26248916E+001
1.11193583E+001
1.26215379E+001
7.19116772E+000
8.91399082E+000
4.89760089E+000
1.26167929E+001
1.26118122E+001
9.35606636E+000
1.08671963E+001
5.60000884E+000
7.72940341E+000
1.26018757E+001
1.25806276E+001
9.78946010E+000
1.25420054E+001
6.25745587E+000
1.24964205E+001
8.24266044E+000
1.00000000E+000
1.86637177E+000
1.24575040E+001
2.72023484E+000
1.07324706E+001
1.17716244E+001
1.02302738E+001
1.12671831E+001
3.55453533E+000
1.24249310E+001
6.89486781E+000
8.73418434E+000
1.20110617E+001
1.15756385E+001
1.29264946E+001
1.23806949E+001
4.35802478E+000
1.29384267E+001
1.29193478E+001
1.29514854E+001
1.15582435E+001
1.29185734E+001
1.23231630E+001
9.19733402E+000
7.46641888E+000
1.07286550E+001
5.12572726E+000
1.29166139E+001
1.10902184E+001
1.22200990E+001
1.29145164E+001
1.14740686E+001
9.64161533E+000
8.00533384E+000
5.84676040E+000
1.29074236E+001
1.28878040E+001
1.28510824E+001
1.00745610E+001
1.28106097E+001
6.53220546E+000
8.53076753E+000
1.00000000E+000
1.14874256E+001
1.93523160E+000
1.27814945E+001
2.85356249E+000
9.01832502E+000
7.16270597E+000
1.27583021E+001
3.74189190E+000
1.05167094E+001
1.22530091E+001
1.21831181E+001
1.12176672E+001
1.32154318E+001
1.32287588E+001
1.21414420E+001
1.24397302E+001
1.32095443E+001
4.59306662E+000
1.27307712E+001
1.32455817E+001
1.17870814E+001
1.32113954E+001
9.48983986E+000
1.17975385E+001
7.74364646E+000
1.32140511E+001
5.39744509E+000
1.27095328E+001
1.32138352E+001
8.29272458E+000
1.09925644E+001
9.93945750E+000
6.13993728E+000
1.32075724E+001
1.27135836E+001
1.31912607E+001
8.81025786E+000
1.31628648E+001
6.82046620E+000
1.03700490E+001
1.31249778E+001
1.16203413E+001
1.00000000E+000
2.01838670E+000
1.30995266E+001
9.30730457E+000
7.44655034E+000
3.01880247E+000
1.27194004E+001
1.30888758E+001
1.14152352E+001
1.07991759E+001
3.97618470E+000
1.26614417E+001
1.34988321E+001
1.35112941E+001
1.34931190E+001
8.03385841E+000
1.25742386E+001
9.79245283E+000
1.35341662E+001
4.88945613E+000
1.34994935E+001
1.30874436E+001
1.24704145E+001
1.35079069E+001
1.24524653E+001
5.72669445E+000
8.58426241E+000
1.02463778E+001
1.35124048E+001
1.20708789E+001
1.12316928E+001
1.30985386E+001
6.47585996E+000
1.35090074E+001
9.10017225E+000
7.15881633E+000
1.34975327E+001
1.18565509E+001
1.34730421E+001
1.06794932E+001
1.31070512E+001
1.34390363E+001
1.00000000E+000
7.77846057E+000
9.59914047E+000
1.34154717E+001
2.12214887E+000
1.16601165E+001
8.34379603E+000
1.31025669E+001
3.23332193E+000
1.34142483E+001
1.10902115E+001
1.37753989E+001
1.00906497E+001
1.37714087E+001
1.37909200E+001
4.29503827E+000
1.30563385E+001
1.38159831E+001
8.87937030E+000
1.37818519E+001
5.28068474E+000
1.34350813E+001
1.29851711E+001
1.23249225E+001
1.37983752E+001
6.15117518E+000
1.28841543E+001
1.05509999E+001
9.39173182E+000
1.15060006E+001
1.27714783E+001
6.90866478E+000
1.38050055E+001
1.19910025E+001
7.56750494E+000
1.34646733E+001
1.38062800E+001
1.27123079E+001
9.89181858E+000
1.37955685E+001
8.16102782E+000
1.09953383E+001
1.37762412E+001
1.37416826E+001
1.00000000E+000
8.69778361E+000
1.37216118E+001
1.34912800E+001
1.19165962E+001
2.26734497E+000
1.03810186E+001
9.18981556E+000
1.14055848E+001
1.37322624E+001
3.53297142E+000
1.40517345E+001
1.27450486E+001
1.40688068E+001
1.35027708E+001
1.40521472E+001
1.25869920E+001
9.68397578E+000
1.40905355E+001
1.40620407E+001
4.76054249E+000
1.08589011E+001
1.37704007E+001
1.18056541E+001
5.87251464E+000
1.34897622E+001
1.40842231E+001
1.23933482E+001
6.74626569E+000
7.47380618E+000
1.31486639E+001
8.08216458E+000
1.01823120E+001
1.33074250E+001
1.40972868E+001