# vtk DataFile Version 1.0
ECM-CELL DIFFUSION-MECHANICS
ASCII

DATASET UNSTRUCTURED_GRID
POINTS      258 float
1.50000000E+001 3.00000000E+001 0.00000000E+000
-5.00000000E+000 3.00000000E+001 0.00000000E+000
-5.00000000E+000 0.00000000E+000 0.00000000E+000
-2.50000000E+001 0.00000000E+000 0.00000000E+000
-2.69134178E+001 -9.61939812E+000 0.00000000E+000
-2.85355339E+001 -8.53553391E+000 0.00000000E+000
-2.96193981E+001 -6.91341734E+000 0.00000000E+000
-3.00000000E+001 -5.00000000E+000 0.00000000E+000
-2.96193981E+001 -3.08658290E+000 0.00000000E+000
-2.85355339E+001 -1.46446609E+000 0.00000000E+000
-2.69134178E+001 -3.80602330E-001 0.00000000E+000
-2.50000000E+001 -1.00000000E+001 0.00000000E+000
5.00000000E+000 -1.00000000E+001 0.00000000E+000
5.00000000E+000 2.00000000E+001 0.00000000E+000
1.30000000E+001 3.00000000E+001 0.00000000E+000
1.10000000E+001 3.00000000E+001 0.00000000E+000
9.00000000E+000 3.00000000E+001 0.00000000E+000
7.00000000E+000 3.00000000E+001 0.00000000E+000
5.00000000E+000 3.00000000E+001 0.00000000E+000
3.00000000E+000 3.00000000E+001 0.00000000E+000
1.00000000E+000 3.00000000E+001 0.00000000E+000
-1.00000000E+000 3.00000000E+001 0.00000000E+000
-3.00000000E+000 3.00000000E+001 0.00000000E+000
-5.00000000E+000 2.80000000E+001 0.00000000E+000
-5.00000000E+000 2.60000000E+001 0.00000000E+000
-5.00000000E+000 2.40000000E+001 0.00000000E+000
-5.00000000E+000 2.20000000E+001 0.00000000E+000
-5.00000000E+000 2.00000000E+001 0.00000000E+000
-5.00000000E+000 1.80000000E+001 0.00000000E+000
-5.00000000E+000 1.60000000E+001 0.00000000E+000
-5.00000000E+000 1.40000000E+001 0.00000000E+000
-5.00000000E+000 1.20000000E+001 0.00000000E+000
-5.00000000E+000 1.00000000E+001 0.00000000E+000
-5.00000000E+000 8.00000000E+000 0.00000000E+000
-5.00000000E+000 6.00000000E+000 0.00000000E+000
-5.00000000E+000 4.00000000E+000 0.00000000E+000
-5.00000000E+000 2.00000000E+000 0.00000000E+000
-7.00000000E+000 0.00000000E+000 0.00000000E+000
-9.00000000E+000 0.00000000E+000 0.00000000E+000
-1.10000000E+001 0.00000000E+000 0.00000000E+000
-1.30000000E+001 0.00000000E+000 0.00000000E+000
-1.50000000E+001 0.00000000E+000 0.00000000E+000
-1.70000000E+001 0.00000000E+000 0.00000000E+000
-1.90000000E+001 0.00000000E+000 0.00000000E+000
-2.10000000E+001 0.00000000E+000 0.00000000E+000
-2.30000000E+001 0.00000000E+000 0.00000000E+000
3.00000000E+000 -1.00000000E+001 0.00000000E+000
1.00000000E+000 -1.00000000E+001 0.00000000E+000
-1.00000000E+000 -1.00000000E+001 0.00000000E+000
-3.00000000E+000 -1.00000000E+001 0.00000000E+000
-5.00000000E+000 -1.00000000E+001 0.00000000E+000
-7.00000000E+000 -1.00000000E+001 0.00000000E+000
-9.00000000E+000 -1.00000000E+001 0.00000000E+000
-1.10000000E+001 -1.00000000E+001 0.00000000E+000
-1.30000000E+001 -1.00000000E+001 0.00000000E+000
-1.50000000E+001 -1.00000000E+001 0.00000000E+000
-1.70000000E+001 -1.00000000E+001 0.00000000E+000
-1.90000000E+001 -1.00000000E+001 0.00000000E+000
-2.10000000E+001 -1.00000000E+001 0.00000000E+000
-2.30000000E+001 -1.00000000E+001 0.00000000E+000
5.00000000E+000 1.80000000E+001 0.00000000E+000
5.00000000E+000 1.60000000E+001 0.00000000E+000
5.00000000E+000 1.40000000E+001 0.00000000E+000
5.00000000E+000 1.20000000E+001 0.00000000E+000
5.00000000E+000 1.00000000E+001 0.00000000E+000
5.00000000E+000 8.00000000E+000 0.00000000E+000
5.00000000E+000 6.00000000E+000 0.00000000E+000
5.00000000E+000 4.00000000E+000 0.00000000E+000
5.00000000E+000 2.00000000E+000 0.00000000E+000
5.00000000E+000 0.00000000E+000 0.00000000E+000
5.00000000E+000 -2.00000000E+000 0.00000000E+000
5.00000000E+000 -4.00000000E+000 0.00000000E+000
5.00000000E+000 -6.00000000E+000 0.00000000E+000
5.00000000E+000 -8.00000000E+000 0.00000000E+000
6.42857122E+000 2.14285717E+001 0.00000000E+000
7.85714293E+000 2.28571434E+001 0.00000000E+000
9.28571415E+000 2.42857151E+001 0.00000000E+000
1.07142859E+001 2.57142849E+001 0.00000000E+000
1.21428576E+001 2.71428566E+001 0.00000000E+000
1.35714283E+001 2.85714283E+001 0.00000000E+000
-2.55692158E+001 -7.47994947E+000 0.00000000E+000
-2.68123989E+001 -6.65812349E+000 0.00000000E+000
-2.78370075E+001 -5.65078545E+000 0.00000000E+000
-2.49931679E+001 -2.99975061E+000 0.00000000E+000
-6.07402325E+000 -2.51799893E+000 0.00000000E+000
-3.41205382E+000 6.06536293E+000 0.00000000E+000
-7.90601015E+000 -2.16468501E+000 0.00000000E+000
6.93360615E+000 2.85683231E+001 0.00000000E+000
5.03122282E+000 2.85983677E+001 0.00000000E+000
3.07519960E+000 2.83579216E+001 0.00000000E+000
1.02007830E+000 2.82704353E+001 0.00000000E+000
-1.00747931E+000 2.81540108E+001 0.00000000E+000
-2.98253322E+000 2.20530071E+001 0.00000000E+000
-3.14535069E+000 1.99964409E+001 0.00000000E+000
-3.38007402E+000 1.80213890E+001 0.00000000E+000
-3.24730754E+000 1.60810070E+001 0.00000000E+000
-3.22061014E+000 1.40090933E+001 0.00000000E+000
-3.27037716E+000 1.19557343E+001 0.00000000E+000
-3.32515502E+000 9.95609379E+000 0.00000000E+000
-3.37583542E+000 7.99501371E+000 0.00000000E+000
-3.38906217E+000 4.20707273E+000 0.00000000E+000
-3.21241689E+000 2.45526028E+000 0.00000000E+000
-2.81301451E+000 1.00452256E+000 0.00000000E+000
-9.85906696E+000 -1.94350755E+000 0.00000000E+000
-1.18253517E+001 -1.81189597E+000 0.00000000E+000
-1.37737036E+001 -1.72045147E+000 0.00000000E+000
-1.56994905E+001 -1.64893782E+000 0.00000000E+000
-1.76126289E+001 -1.59551537E+000 0.00000000E+000
-1.95252953E+001 -1.56757510E+000 0.00000000E+000
-2.14428196E+001 -1.57937253E+000 0.00000000E+000
-2.40465412E+001 -7.98486996E+000 0.00000000E+000
-2.32975655E+001 -1.60528278E+000 0.00000000E+000
-8.58305335E-001 -8.21509266E+000 0.00000000E+000
-2.85219836E+000 -8.24649334E+000 0.00000000E+000
-4.86234474E+000 -8.28040028E+000 0.00000000E+000
-6.82275486E+000 -8.35858631E+000 0.00000000E+000
-8.72553921E+000 -8.46272755E+000 0.00000000E+000
-1.06668940E+001 -8.49340248E+000 0.00000000E+000
-1.26085234E+001 -8.47250462E+000 0.00000000E+000
-1.45571985E+001 -8.43932819E+000 0.00000000E+000
-1.65147133E+001 -8.41329861E+000 0.00000000E+000
-1.84622021E+001 -8.38815498E+000 0.00000000E+000
-2.03904629E+001 -8.34011364E+000 0.00000000E+000
-2.22757702E+001 -8.22864628E+000 0.00000000E+000
3.32341838E+000 1.79214497E+001 0.00000000E+000
3.49274993E+000 1.58118629E+001 0.00000000E+000
3.45036292E+000 1.38697481E+001 0.00000000E+000
3.40310287E+000 1.19041443E+001 0.00000000E+000
3.36840963E+000 9.92752457E+000 0.00000000E+000
3.33398676E+000 7.94917822E+000 0.00000000E+000
3.27319622E+000 5.98151016E+000 0.00000000E+000
3.14357090E+000 4.00265217E+000 0.00000000E+000
2.93195248E+000 2.00336671E+000 0.00000000E+000
2.85718203E+000 -7.79486522E-002 0.00000000E+000
2.96486330E+000 -2.16540527E+000 0.00000000E+000
3.04931951E+000 -4.18990898E+000 0.00000000E+000
3.07869506E+000 -6.14942598E+000 0.00000000E+000
3.06127834E+000 -8.08621216E+000 0.00000000E+000
8.87478542E+000 2.87956104E+001 0.00000000E+000
1.06500645E+001 2.90019722E+001 0.00000000E+000
9.73117542E+000 2.65182457E+001 0.00000000E+000
4.64431381E+000 2.23340874E+001 0.00000000E+000
8.02427673E+000 2.53785686E+001 0.00000000E+000
6.40424109E+000 2.39808598E+001 0.00000000E+000
-2.30793724E+001 -6.28166199E+000 0.00000000E+000
-2.65148945E+001 -3.90364408E+000 0.00000000E+000
-3.43422222E+000 -1.27146482E+000 0.00000000E+000
1.04067838E+000 2.66475811E+001 0.00000000E+000
1.10761571E+000 -8.16181087E+000 0.00000000E+000
-7.36092031E-001 -6.43063927E+000 0.00000000E+000
-4.75875711E+000 -6.53175259E+000 0.00000000E+000
-6.72676086E+000 -6.65011883E+000 0.00000000E+000
-8.50626945E+000 -6.96918011E+000 0.00000000E+000
-1.03056269E+001 -7.00035810E+000 0.00000000E+000
-1.21337996E+001 -6.91552496E+000 0.00000000E+000
-1.40198870E+001 -6.83708525E+000 0.00000000E+000
-1.59333124E+001 -6.77759314E+000 0.00000000E+000
-1.20785129E+000 1.97240963E+001 0.00000000E+000
-1.32478476E+000 1.64232349E+001 0.00000000E+000
1.96661806E+000 1.56013527E+001 0.00000000E+000
1.83737338E+000 1.38039751E+001 0.00000000E+000
1.66680229E+000 7.95078230E+000 0.00000000E+000
1.58930695E+000 6.05578279E+000 0.00000000E+000
1.41368437E+000 4.18972206E+000 0.00000000E+000
-2.88116503E+000 2.41189423E+001 0.00000000E+000
-1.05743062E+000 2.20182400E+001 0.00000000E+000
-2.06459260E+000 1.80287819E+001 0.00000000E+000
1.76209581E+000 1.18621569E+001 0.00000000E+000
1.71383548E+000 9.90428638E+000 0.00000000E+000
-1.96961384E+001 -6.65574455E+000 0.00000000E+000
1.10382271E+000 -2.44856596E+000 0.00000000E+000
-2.71728683E+000 -6.50229883E+000 0.00000000E+000
-6.94966459E+000 -4.68074226E+000 0.00000000E+000
-8.87774658E+000 -3.94481039E+000 0.00000000E+000
-1.07458334E+001 -3.67898369E+000 0.00000000E+000
-1.26495609E+001 -3.53031301E+000 0.00000000E+000
-1.45555058E+001 -3.42598987E+000 0.00000000E+000
-1.64351330E+001 -3.33984756E+000 0.00000000E+000
-1.82789097E+001 -3.26375914E+000 0.00000000E+000
-1.78273373E+001 -6.72471857E+000 0.00000000E+000
-2.00785789E+001 -3.19971037E+000 0.00000000E+000
-1.49681842E+000 1.40206604E+001 0.00000000E+000
-1.58211720E+000 1.19191847E+001 0.00000000E+000
-1.64738953E+000 9.92495728E+000 0.00000000E+000
-1.70833540E+000 7.99023056E+000 0.00000000E+000
-1.75975442E+000 6.13986826E+000 0.00000000E+000
-1.75903368E+000 4.42714834E+000 0.00000000E+000
-1.57233489E+000 2.89093947E+000 0.00000000E+000
8.35785091E-001 2.16724944E+000 0.00000000E+000
6.82180047E-001 -2.41043478E-001 0.00000000E+000
1.19283760E+000 -4.42227745E+000 0.00000000E+000
5.08529997E+000 2.73792095E+001 0.00000000E+000
3.36510825E+000 2.64843388E+001 0.00000000E+000
2.03854513E+000 1.69918709E+001 0.00000000E+000
-2.18747597E+001 -3.21142745E+000 0.00000000E+000
-2.14750767E+001 -6.53344297E+000 0.00000000E+000
3.87977886E+000 2.02254429E+001 0.00000000E+000
6.80135918E+000 2.67542229E+001 0.00000000E+000
3.63350844E+000 2.38850384E+001 0.00000000E+000
-2.38274765E+001 -3.46659899E+000 0.00000000E+000
1.18041360E+000 -6.30371428E+000 0.00000000E+000
[...]
POINT_DATA      258
SCALARS Ux float
LOOKUP_TABLE default
1.00000000E+000
9.23224317E-001
4.63920647E-001
-9.71445147E-017
1.73472348E-018
8.32667268E-017
7.82793969E-017
1.18828558E-016
7.19910243E-017
-1.64798730E-017
5.03069808E-017
2.42861287E-017
4.61322585E-001
1.00000000E+000
9.98568450E-001
9.93464336E-001
9.87052440E-001
9.77535792E-001
9.65022052E-001
9.51301388E-001
9.41055253E-001
9.32205926E-001
9.26209756E-001
9.21598163E-001
9.15994421E-001
9.04412282E-001
8.94573839E-001
8.60674076E-001
8.40012011E-001
8.08974469E-001
7.73409418E-001
7.38835780E-001
7.01032198E-001
6.63725069E-001
6.26504154E-001
5.87202010E-001
5.55954686E-001
3.81900968E-001
3.36696500E-001
2.97028872E-001
2.59202918E-001
2.22059657E-001
1.85169336E-001
1.48040166E-001
1.10119570E-001
7.19961474E-002
4.59639810E-001
4.47874126E-001
4.36743483E-001
4.15648047E-001
3.89762441E-001
3.59976215E-001
3.26992077E-001
2.91741447E-001
2.55750336E-001
2.19600393E-001
1.80255953E-001
1.45167583E-001
1.04941777E-001
6.88678995E-002
8.83495682E-001
8.35989039E-001
7.88495899E-001
7.45008202E-001
7.07520190E-001
6.73273071E-001
6.37032288E-001
5.99964296E-001
5.64607756E-001
5.36422295E-001
5.12231610E-001
4.91786294E-001
4.74651631E-001
4.68318051E-001
1.00000000E+000
1.00000000E+000
1.00000000E+000
1.00000000E+000
1.00000000E+000
1.00000000E+000
2.77887913E-002
1.41391240E-002
1.30187128E-002
4.39426227E-002
3.76652393E-001
6.27660976E-001
3.56482538E-001
9.77553407E-001
9.65533986E-001
9.50391514E-001
9.39810894E-001
9.31727289E-001
8.80238267E-001
8.65955086E-001
8.43358666E-001
8.06193426E-001
7.76457446E-001
7.37856471E-001
7.00977631E-001
6.64050948E-001
5.92146229E-001
5.55853228E-001
5.26279970E-001
3.18233437E-001
2.80974681E-001
2.44654270E-001
2.09136635E-001
1.74196446E-001
1.38731632E-001
1.02192757E-001
5.77838083E-002
6.45919195E-002
4.39762214E-001
4.19324457E-001
3.93869756E-001
3.63649981E-001
3.32756848E-001
2.97201889E-001
2.63035217E-001
2.27611968E-001
1.93202722E-001
1.46700085E-001
1.17005501E-001
8.28915649E-002
8.77590585E-001
8.31761037E-001
7.84826267E-001
7.39083239E-001
7.07407311E-001
6.71250697E-001
6.39336425E-001
5.97161266E-001
5.61576905E-001
5.32478108E-001
5.11748918E-001
4.85444939E-001
4.71402221E-001
4.59901308E-001
9.86787999E-001
9.94074063E-001
9.92859203E-001
9.61065463E-001
9.91203559E-001
9.83628575E-001
6.82657695E-002
2.24702612E-002
4.56004750E-001
9.37141460E-001
4.54606336E-001
4.46642560E-001
4.00971042E-001
3.63449560E-001
3.34148280E-001
3.03000684E-001
2.71638207E-001
2.37403115E-001
2.03484917E-001
8.66559015E-001
8.27063802E-001
8.13162067E-001
7.84947667E-001
6.69250612E-001
6.26436818E-001
5.93836134E-001
9.13716780E-001
9.03091679E-001
8.41745522E-001
7.42118181E-001
7.13087483E-001
1.27883502E-001
4.94645917E-001
4.26245185E-001
3.75298242E-001
3.33398113E-001
3.00227664E-001
2.65010697E-001
2.29834575E-001
1.95747337E-001
1.61852550E-001
1.72357128E-001
1.33128541E-001
7.73209506E-001
7.39591054E-001
7.01980937E-001
6.61532680E-001
6.31156490E-001
5.98713041E-001
5.69443816E-001
5.64951409E-001
5.29030337E-001
4.74081853E-001
9.64995102E-001
9.54472062E-001
8.42979126E-001
9.29160977E-002
1.00450517E-001
9.35897235E-001
9.74116593E-001
9.57048872E-001
6.05993598E-002
4.64313543E-001
9.24494015E-001
9.97529772E-001
4.49441472E-002
7.45138132E-002
9.30498290E-001
8.56400529E-001
5.20501959E-001
4.35702946E-001
3.33345542E-001
3.17171711E-001
2.84407090E-001
2.51472796E-001
6.07107508E-001
4.05745565E-001
4.72524805E-001
2.16783146E-001
6.32082140E-001
4.95528874E-001
5.50695832E-001
6.70248761E-001
7.47934399E-001
6.98249269E-001
7.73259520E-001
8.13863065E-001
8.91804380E-001
8.57105994E-001
1.82629827E-001
1.50427650E-001
9.18237781E-001
8.80442715E-001
8.97745622E-002
9.66468984E-001
4.62581398E-001
4.76139826E-001
9.06420665E-001
9.27184892E-001
4.43270930E-001
4.56493539E-001
9.20436262E-001
5.16583689E-002
9.97455942E-001
9.23930816E-001
6.28671876E-003
6.86080458E-003
1.96401476E-002
4.67319348E-002
9.11219046E-003
9.91086158E-001
9.01164552E-001
9.93781026E-001
5.29407623E-001
9.40181400E-001
1.12424751E-001
8.69696736E-001
9.29288302E-001
9.24135066E-001
5.69270569E-001
