# vtk DataFile Version 1.0
ECM-CELL DIFFUSION-MECHANICS
ASCII

DATASET UNSTRUCTURED_GRID
POINTS      732 float
1.50000000E+001 3.00000000E+001 0.00000000E+000
-5.00000000E+000 3.00000000E+001 0.00000000E+000
-5.00000000E+000 0.00000000E+000 0.00000000E+000
-2.50000000E+001 0.00000000E+000 0.00000000E+000
-2.69134178E+001 -9.61939812E+000 0.00000000E+000
-2.85355339E+001 -8.53553391E+000 0.00000000E+000
-2.96193981E+001 -6.91341734E+000 0.00000000E+000
-3.00000000E+001 -5.00000000E+000 0.00000000E+000
-2.96193981E+001 -3.08658290E+000 0.00000000E+000
-2.85355339E+001 -1.46446609E+000 0.00000000E+000
-2.69134178E+001 -3.80602330E-001 0.00000000E+000
-2.50000000E+001 -1.00000000E+001 0.00000000E+000
5.00000000E+000 -1.00000000E+001 0.00000000E+000
5.00000000E+000 2.00000000E+001 0.00000000E+000
1.30000000E+001 3.00000000E+001 0.00000000E+000
1.10000000E+001 3.00000000E+001 0.00000000E+000
9.00000000E+000 3.00000000E+001 0.00000000E+000
7.00000000E+000 3.00000000E+001 0.00000000E+000
5.00000000E+000 3.00000000E+001 0.00000000E+000
3.00000000E+000 3.00000000E+001 0.00000000E+000
1.00000000E+000 3.00000000E+001 0.00000000E+000
-1.00000000E+000 3.00000000E+001 0.00000000E+000
-3.00000000E+000 3.00000000E+001 0.00000000E+000
-5.00000000E+000 2.80000000E+001 0.00000000E+000
-5.00000000E+000 2.60000000E+001 0.00000000E+000
-5.00000000E+000 2.40000000E+001 0.00000000E+000
-5.00000000E+000 2.20000000E+001 0.00000000E+000
-5.00000000E+000 2.00000000E+001 0.00000000E+000
-5.00000000E+000 1.80000000E+001 0.00000000E+000
-5.00000000E+000 1.60000000E+001 0.00000000E+000
-5.00000000E+000 1.40000000E+001 0.00000000E+000
-5.00000000E+000 1.20000000E+001 0.00000000E+000
-5.00000000E+000 1.00000000E+001 0.00000000E+000
-5.00000000E+000 8.00000000E+000 0.00000000E+000
-5.00000000E+000 6.00000000E+000 0.00000000E+000
-5.00000000E+000 4.00000000E+000 0.00000000E+000
-5.00000000E+000 2.00000000E+000 0.00000000E+000
-7.00000000E+000 0.00000000E+000 0.00000000E+000
-9.00000000E+000 0.00000000E+000 0.00000000E+000
-1.10000000E+001 0.00000000E+000 0.00000000E+000
-1.30000000E+001 0.00000000E+000 0.00000000E+000
-1.50000000E+001 0.00000000E+000 0.00000000E+000
-1.70000000E+001 0.00000000E+000 0.00000000E+000
-1.90000000E+001 0.00000000E+000 0.00000000E+000
-2.10000000E+001 0.00000000E+000 0.00000000E+000
-2.30000000E+001 0.00000000E+000 0.00000000E+000
3.00000000E+000 -1.00000000E+001 0.00000000E+000
1.00000000E+000 -1.00000000E+001 0.00000000E+000
-1.00000000E+000 -1.00000000E+001 0.00000000E+000
-3.00000000E+000 -1.00000000E+001 0.00000000E+000
-5.00000000E+000 -1.00000000E+001 0.00000000E+000
-7.00000000E+000 -1.00000000E+001 0.00000000E+000
-9.00000000E+000 -1.00000000E+001 0.00000000E+000
-1.10000000E+001 -1.00000000E+001 0.00000000E+000
-1.30000000E+001 -1.00000000E+001 0.00000000E+000
-1.50000000E+001 -1.00000000E+001 0.00000000E+000
-1.70000000E+001 -1.00000000E+001 0.00000000E+000
-1.90000000E+001 -1.00000000E+001 0.00000000E+000
-2.10000000E+001 -1.00000000E+001 0.00000000E+000
-2.30000000E+001 -1.00000000E+001 0.00000000E+000
5.00000000E+000 1.80000000E+001 0.00000000E+000
5.00000000E+000 1.60000000E+001 0.00000000E+000
5.00000000E+000 1.40000000E+001 0.00000000E+000
5.00000000E+000 1.20000000E+001 0.00000000E+000
5.00000000E+000 1.00000000E+001 0.00000000E+000
5.00000000E+000 8.00000000E+000 0.00000000E+000
5.00000000E+000 6.00000000E+000 0.00000000E+000
5.00000000E+000 4.00000000E+000 0.00000000E+000
5.00000000E+000 2.00000000E+000 0.00000000E+000
5.00000000E+000 0.00000000E+000 0.00000000E+000
5.00000000E+000 -2.00000000E+000 0.00000000E+000
5.00000000E+000 -4.00000000E+000 0.00000000E+000
5.00000000E+000 -6.00000000E+000 0.00000000E+000
5.00000000E+000 -8.00000000E+000 0.00000000E+000
6.42857122E+000 2.14285717E+001 0.00000000E+000
7.85714293E+000 2.28571434E+001 0.00000000E+000
9.28571415E+000 2.42857151E+001 0.00000000E+000
1.07142859E+001 2.57142849E+001 0.00000000E+000
1.21428576E+001 2.71428566E+001 0.00000000E+000
1.35714283E+001 2.85714283E+001 0.00000000E+000
-2.55692158E+001 -7.47994947E+000 0.00000000E+000
-2.68123989E+001 -6.65812349E+000 0.00000000E+000
-2.78370075E+001 -5.65078545E+000 0.00000000E+000
-2.49931679E+001 -2.99975061E+000 0.00000000E+000
-6.07402325E+000 -2.51799893E+000 0.00000000E+000
-3.41205382E+000 6.06536293E+000 0.00000000E+000
-7.90601015E+000 -2.16468501E+000 0.00000000E+000
6.93360615E+000 2.85683231E+001 0.00000000E+000
5.03122282E+000 2.85983677E+001 0.00000000E+000
3.07519960E+000 2.83579216E+001 0.00000000E+000
1.02007830E+000 2.82704353E+001 0.00000000E+000
-1.00747931E+000 2.81540108E+001 0.00000000E+000
-2.98253322E+000 2.20530071E+001 0.00000000E+000
-3.14535069E+000 1.99964409E+001 0.00000000E+000
-3.38007402E+000 1.80213890E+001 0.00000000E+000
-3.24730754E+000 1.60810070E+001 0.00000000E+000
-3.22061014E+000 1.40090933E+001 0.00000000E+000
-3.27037716E+000 1.19557343E+001 0.00000000E+000
-3.32515502E+000 9.95609379E+000 0.00000000E+000
-3.37583542E+000 7.99501371E+000 0.00000000E+000
-3.38906217E+000 4.20707273E+000 0.00000000E+000
-3.21241689E+000 2.45526028E+000 0.00000000E+000
-2.81301451E+000 1.00452256E+000 0.00000000E+000
-9.85906696E+000 -1.94350755E+000 0.00000000E+000
-1.18253517E+001 -1.81189597E+000 0.00000000E+000
-1.37737036E+001 -1.72045147E+000 0.00000000E+000
-1.56994905E+001 -1.64893782E+000 0.00000000E+000
-1.76126289E+001 -1.59551537E+000 0.00000000E+000
-1.95252953E+001 -1.56757510E+000 0.00000000E+000
-2.14428196E+001 -1.57937253E+000 0.00000000E+000
-2.40465412E+001 -7.98486996E+000 0.00000000E+000
-2.32975655E+001 -1.60528278E+000 0.00000000E+000
-8.58305335E-001 -8.21509266E+000 0.00000000E+000
-2.85219836E+000 -8.24649334E+000 0.00000000E+000
-4.86234474E+000 -8.28040028E+000 0.00000000E+000
-6.82275486E+000 -8.35858631E+000 0.00000000E+000
-8.72553921E+000 -8.46272755E+000 0.00000000E+000
-1.06668940E+001 -8.49340248E+000 0.00000000E+000
-1.26085234E+001 -8.47250462E+000 0.00000000E+000
-1.45571985E+001 -8.43932819E+000 0.00000000E+000
-1.65147133E+001 -8.41329861E+000 0.00000000E+000
-1.84622021E+001 -8.38815498E+000 0.00000000E+000
-2.03904629E+001 -8.34011364E+000 0.00000000E+000
-2.22757702E+001 -8.22864628E+000 0.00000000E+000
3.32341838E+000 1.79214497E+001 0.00000000E+000
3.49274993E+000 1.58118629E+001 0.00000000E+000
3.45036292E+000 1.38697481E+001 0.00000000E+000
3.40310287E+000 1.19041443E+001 0.00000000E+000
3.36840963E+000 9.92752457E+000 0.00000000E+000
3.33398676E+000 7.94917822E+000 0.00000000E+000
3.27319622E+000 5.98151016E+000 0.00000000E+000
3.14357090E+000 4.00265217E+000 0.00000000E+000
2.93195248E+000 2.00336671E+000 0.00000000E+000
2.85718203E+000 -7.79486522E-002 0.00000000E+000
2.96486330E+000 -2.16540527E+000 0.00000000E+000
3.04931951E+000 -4.18990898E+000 0.00000000E+000
3.07869506E+000 -6.14942598E+000 0.00000000E+000
3.06127834E+000 -8.08621216E+000 0.00000000E+000
8.87478542E+000 2.87956104E+001 0.00000000E+000
1.06500645E+001 2.90019722E+001 0.00000000E+000
9.73117542E+000 2.65182457E+001 0.00000000E+000
4.64431381E+000 2.23340874E+001 0.00000000E+000
8.02427673E+000 2.53785686E+001 0.00000000E+000
6.40424109E+000 2.39808598E+001 0.00000000E+000
-2.30793724E+001 -6.28166199E+000 0.00000000E+000
-2.65148945E+001 -3.90364408E+000 0.00000000E+000
-3.43422222E+000 -1.27146482E+000 0.00000000E+000
1.04067838E+000 2.66475811E+001 0.00000000E+000
1.10761571E+000 -8.16181087E+000 0.00000000E+000
-7.36092031E-001 -6.43063927E+000 0.00000000E+000
-4.75875711E+000 -6.53175259E+000 0.00000000E+000
-6.72676086E+000 -6.65011883E+000 0.00000000E+000
-8.50626945E+000 -6.96918011E+000 0.00000000E+000
-1.03056269E+001 -7.00035810E+000 0.00000000E+000
-1.21337996E+001 -6.91552496E+000 0.00000000E+000
-1.40198870E+001 -6.83708525E+000 0.00000000E+000
-1.59333124E+001 -6.77759314E+000 0.00000000E+000
-1.20785129E+000 1.97240963E+001 0.00000000E+000
-1.32478476E+000 1.64232349E+001 0.00000000E+000
1.96661806E+000 1.56013527E+001 0.00000000E+000
1.83737338E+000 1.38039751E+001 0.00000000E+000
1.66680229E+000 7.95078230E+000 0.00000000E+000
1.58930695E+000 6.05578279E+000 0.00000000E+000
1.41368437E+000 4.18972206E+000 0.00000000E+000
-2.88116503E+000 2.41189423E+001 0.00000000E+000
-1.05743062E+000 2.20182400E+001 0.00000000E+000
-2.06459260E+000 1.80287819E+001 0.00000000E+000
1.76209581E+000 1.18621569E+001 0.00000000E+000
1.71383548E+000 9.90428638E+000 0.00000000E+000
-1.96961384E+001 -6.65574455E+000 0.00000000E+000
1.10382271E+000 -2.44856596E+000 0.00000000E+000
-2.71728683E+000 -6.50229883E+000 0.00000000E+000
-6.94966459E+000 -4.68074226E+000 0.00000000E+000
-8.87774658E+000 -3.94481039E+000 0.00000000E+000
-1.07458334E+001 -3.67898369E+000 0.00000000E+000
-1.26495609E+001 -3.53031301E+000 0.00000000E+000
-1.45555058E+001 -3.42598987E+000 0.00000000E+000
-1.64351330E+001 -3.33984756E+000 0.00000000E+000
-1.82789097E+001 -3.26375914E+000 0.00000000E+000
-1.78273373E+001 -6.72471857E+000 0.00000000E+000
-2.00785789E+001 -3.19971037E+000 0.00000000E+000
-1.49681842E+000 1.40206604E+001 0.00000000E+000
-1.58211720E+000 1.19191847E+001 0.00000000E+000
-1.64738953E+000 9.92495728E+000 0.00000000E+000
-1.70833540E+000 7.99023056E+000 0.00000000E+000
-1.75975442E+000 6.13986826E+000 0.00000000E+000
-1.75903368E+000 4.42714834E+000 0.00000000E+000
-1.57233489E+000 2.89093947E+000 0.00000000E+000
8.35785091E-001 2.16724944E+000 0.00000000E+000
6.82180047E-001 -2.41043478E-001 0.00000000E+000
1.19283760E+000 -4.42227745E+000 0.00000000E+000
5.08529997E+000 2.73792095E+001 0.00000000E+000
3.36510825E+000 2.64843388E+001 0.00000000E+000
2.03854513E+000 1.69918709E+001 0.00000000E+000
-2.18747597E+001 -3.21142745E+000 0.00000000E+000
-2.14750767E+001 -6.53344297E+000 0.00000000E+000
3.87977886E+000 2.02254429E+001 0.00000000E+000
6.80135918E+000 2.67542229E+001 0.00000000E+000
3.63350844E+000 2.38850384E+001 0.00000000E+000
-2.38274765E+001 -3.46659899E+000 0.00000000E+000
1.18041360E+000 -6.30371428E+000 0.00000000E+000
[...]
POINT_DATA      732
SCALARS Ux float
LOOKUP_TABLE default
1.00000000E+000
9.21502312E-001
4.63143427E-001
-4.70110062E-016
-5.98045918E-016
-2.28549818E-016
-2.54136989E-016
-3.82506526E-016
-5.84818652E-016
-4.77157376E-016
-3.92047506E-016
-4.57966998E-016
4.63442084E-001
1.00000000E+000
9.98438482E-001
9.93735739E-001
9.86014452E-001
9.75620549E-001
9.63378919E-001
9.50604834E-001
9.38850208E-001
9.29504118E-001
9.23543961E-001
9.19434464E-001
9.13082841E-001
9.02052702E-001
8.85891410E-001
8.64402739E-001
8.37934216E-001
8.07379448E-001
7.73856702E-001
7.38339570E-001
7.01467364E-001
6.63468521E-001
6.24227034E-001
5.82443617E-001
5.37206608E-001
3.89438136E-001
3.44186714E-001
3.02155467E-001
2.62502126E-001
2.23728907E-001
1.85388357E-001
1.47176451E-001
1.08121394E-001
6.77825938E-002
4.60492412E-001
4.51650816E-001
4.36980209E-001
4.16710958E-001
3.91373322E-001
3.61838450E-001
3.29176182E-001
2.94411604E-001
2.58342852E-001
2.21505639E-001
1.84172497E-001
1.46496812E-001
1.07594329E-001
6.77603941E-002
8.81725732E-001
8.30976214E-001
7.86212632E-001
7.45845789E-001
7.07021779E-001
6.69410165E-001
6.32925690E-001
5.97941110E-001
5.65161491E-001
5.35561818E-001
5.10192308E-001
4.89909960E-001
4.75234560E-001
4.66391830E-001
1.00000000E+000
1.00000000E+000
1.00000000E+000
1.00000000E+000
1.00000000E+000
1.00000000E+000
3.15244973E-002
2.07170750E-002
1.38399629E-002
4.08108547E-002
4.01396805E-001
6.26141367E-001
3.64122663E-001
9.75720982E-001
9.63725435E-001
9.50740185E-001
9.38028349E-001
9.28004307E-001
8.89157102E-001
8.66536567E-001
8.39590724E-001
8.09825922E-001
7.74778054E-001
7.38021283E-001
7.01013532E-001
6.63779679E-001
5.88347115E-001
5.51614625E-001
5.21645254E-001
3.24332701E-001
2.85096106E-001
2.47176839E-001
2.10193014E-001
1.73684116E-001
1.37274272E-001
1.00249071E-001
5.19693481E-002
6.46326319E-002
4.40465374E-001
4.20381628E-001
3.94858713E-001
3.65687760E-001
3.34456103E-001
3.00703052E-001
2.65718139E-001
2.29860162E-001
1.93390192E-001
1.56825577E-001
1.20238140E-001
8.44652960E-002
8.71205149E-001
8.24228633E-001
7.82683340E-001
7.43437601E-001
7.05279540E-001
6.68089669E-001
6.32052822E-001
5.97058242E-001
5.63522683E-001
5.32007035E-001
5.05614302E-001
4.85565383E-001
4.71664543E-001
4.63371120E-001
9.85926701E-001
9.92977186E-001
9.93688681E-001
9.64767418E-001
9.88282871E-001
9.81500764E-001
7.28877432E-002
2.53274608E-002
4.68100398E-001
9.35507205E-001
4.54750631E-001
4.48399133E-001
4.01285722E-001
3.70650573E-001
3.40084578E-001
3.08323753E-001
2.75152524E-001
2.40297901E-001
2.04593326E-001
8.70249768E-001
8.19453545E-001
8.15126440E-001
7.79056544E-001
6.67072071E-001
6.31940185E-001
5.97930140E-001
9.05731845E-001
8.96936980E-001
8.42821852E-001
7.41230382E-001
7.03835570E-001
1.34154178E-001
4.94952446E-001
4.28000119E-001
3.73773285E-001
3.40007297E-001
3.04414489E-001
2.67971831E-001
2.31621149E-001
1.95936471E-001
1.61069925E-001
1.69106512E-001
1.27238296E-001
7.77086520E-001
7.38651501E-001
7.01441073E-001
6.64813493E-001
6.29270762E-001
5.95904531E-001
5.66067891E-001
5.61224528E-001
5.21842046E-001
4.75851176E-001
9.64481455E-001
9.51690450E-001
8.43806898E-001
9.40023706E-002
1.01268737E-001
9.38517521E-001
9.76954262E-001
9.51621769E-001
6.02518694E-002
4.62752830E-001
9.23713940E-001
9.97632254E-001
3.92370288E-002
6.77597879E-002
9.29739268E-001
8.47312675E-001
5.02893431E-001
4.39821051E-001
3.42921567E-001
3.20260114E-001
2.88041143E-001
2.53133101E-001
6.00399985E-001
4.11779907E-001
4.77313885E-001
2.17535566E-001
6.31742343E-001
4.93102900E-001
5.43754995E-001
6.66302634E-001
7.39784045E-001
7.02738724E-001
7.77730210E-001
8.14475293E-001
8.90286907E-001
8.53343401E-001
1.82305529E-001
1.48042927E-001
9.16335562E-001
8.78140005E-001
8.80086197E-002
9.66170619E-001
4.60824118E-001
4.71771115E-001
9.08902686E-001
9.35115467E-001
4.31894524E-001
4.55582352E-001
9.15938268E-001
5.25483477E-002
9.96536267E-001
9.21666666E-001
8.29094382E-003
8.91777133E-003
1.72700441E-002
3.36803368E-002
1.02221373E-002
9.88078386E-001
9.10881456E-001
9.93093187E-001
5.24115975E-001
9.40301426E-001
1.15982738E-001
8.74548650E-001
9.31426648E-001
9.24862268E-001
5.76300252E-001
9.91305739E-001
9.90813613E-001
9.83038358E-001
9.82430754E-001
9.29127001E-001
9.32625146E-001
9.38673886E-001
9.33804625E-001
4.18045495E-001
4.08226536E-001
3.92715711E-001
4.04628323E-001
7.06244471E-001
6.86567617E-001
6.68838319E-001
6.88079501E-001
3.78259268E-001
3.84072967E-001
4.25261070E-001
4.21032507E-001
3.31200030E-002
3.99661323E-002
7.47511505E-002
6.66459842E-002
-3.68628739E-016
1.42429020E-002
2.57362458E-002
9.61180607E-003
9.70954354E-002
1.10497089E-001
1.32186633E-001
1.18846829E-001
-4.38885039E-016
6.40156582E-003
1.11143103E-002
3.84227053E-003
6.27260181E-002
4.25777538E-002
3.94321709E-002
6.32992867E-002
2.23773666E-002
3.27315311E-002
3.80466485E-002
2.35061156E-002
9.75547603E-001
9.69657792E-001
9.63510435E-001
9.69877433E-001
9.81110935E-001
9.76134762E-001
9.86847441E-001
9.50750019E-001
9.44502943E-001
9.44163856E-001
9.58355520E-001
9.64056622E-001
9.57233072E-001
9.51249188E-001
9.23077572E-001
9.24356100E-001
9.26061295E-001
9.20990885E-001
9.20030385E-001
9.22018407E-001
8.94630357E-001
8.86820419E-001
8.98175121E-001
9.03169966E-001
9.37011343E-001
9.43158519E-001
9.19299154E-001
9.11444045E-001
9.10182799E-001
9.20553662E-001
8.78563809E-001
8.75801114E-001
8.64920056E-001
8.53630254E-001
8.51745177E-001
8.38422206E-001
8.25137187E-001
8.23093776E-001
8.08314447E-001
7.92628152E-001
7.90921860E-001
7.74130871E-001
7.56592402E-001
7.56302279E-001
7.38065789E-001
7.19645984E-001
7.20052146E-001
7.01150177E-001
6.45116134E-001
6.63540803E-001
6.44045954E-001
6.24989138E-001
6.07466179E-001
6.03769647E-001
5.85363049E-001
5.70240681E-001
5.60666481E-001
5.42635153E-001
5.35269160E-001
5.05778985E-001
4.98663897E-001
4.53969139E-001
4.51116352E-001
4.33314206E-001
4.38934197E-001
3.34217657E-001
3.44025582E-001
3.66042089E-001
2.93737186E-001
3.04577315E-001
3.22738740E-001
2.54867701E-001
2.66046519E-001
2.82172341E-001
2.16973684E-001
2.28640187E-001
2.43034172E-001
1.79549358E-001
1.91922064E-001
2.04526561E-001
1.42106913E-001
1.55489432E-001
1.66310278E-001
1.04357797E-001
1.27784339E-001
1.14100903E-001
1.27287665E-001
1.51583005E-001
1.38560837E-001
1.73462244E-002
3.02108002E-002
3.21861251E-002
1.99342957E-002
4.62704678E-001
4.64179712E-001
4.65573702E-001
4.61256841E-001
4.59765093E-001
4.52581955E-001
4.56805880E-001
4.84637910E-001
4.81354434E-001
4.94869416E-001
5.00926554E-001
4.38157058E-001
4.31111199E-001
4.27518272E-001
3.80715271E-001
3.63493205E-001
3.77069762E-001
3.97620014E-001
3.86446311E-001
3.67866507E-001
3.37105877E-001
3.50361858E-001
3.55572244E-001
3.24353229E-001
3.04403118E-001
3.17778551E-001
2.91839356E-001
2.70362261E-001
2.83331769E-001
2.57783556E-001
2.35035040E-001
2.47860450E-001
2.22474390E-001
1.98969802E-001
2.11668177E-001
8.99330494E-001
8.82948305E-001
8.76303314E-001
8.95016412E-001
8.62023089E-001
8.45585628E-001
8.57009271E-001
8.76238083E-001
8.31537934E-001
8.36174026E-001
8.62332735E-001
8.56720067E-001
7.96960494E-001
8.14902730E-001
7.96097379E-001
7.78426692E-001
7.81015936E-001
8.03067876E-001
8.19736799E-001
7.44721529E-001
7.24219390E-001
7.26261016E-001
6.49935238E-001
6.32620089E-001
6.51008114E-001
6.67649774E-001
6.49427751E-001
6.32091859E-001
6.14833524E-001
5.97631363E-001
6.14359225E-001
5.34411986E-001
5.18140439E-001
5.08586061E-001
5.22291827E-001
4.88414534E-001
4.99378943E-001
4.77909825E-001
4.74124856E-001
4.81854175E-001
4.66824222E-001
4.70078939E-001
9.85846738E-001
9.81107203E-001
9.89739256E-001
9.93273516E-001
9.90239298E-001
9.97953242E-001
9.98963615E-001
1.00000000E+000
9.99604338E-001
9.96471721E-001
9.95556812E-001
4.23436251E-003
1.26935706E-002
8.40346706E-003
-5.49907342E-016
-6.50521303E-016
-3.07913417E-016
9.55040513E-003
1.71651681E-002
6.39650086E-002
8.24684351E-002
8.87637963E-002
2.12819671E-002
-4.18068358E-016
3.31657235E-001
3.45835681E-001
9.56954323E-001
9.94167729E-001
1.00000000E+000
9.96869363E-001
9.85384172E-001
9.90526852E-001
1.00000000E+000
9.59647848E-001
9.58344485E-001
9.46543633E-001
9.45387360E-001
9.07631290E-001
8.92307865E-001
9.16816164E-001
9.13911389E-001
9.19322830E-001
8.67779179E-001
8.84649414E-001
8.50525003E-001
8.16983590E-001
8.30694725E-001
8.80758149E-001
8.47358839E-001
8.27311089E-001
8.54233097E-001
7.84801387E-001
8.07835995E-001
7.62832997E-001
7.65753573E-001
6.82514940E-001
6.82611294E-001
7.60031811E-001
7.42407629E-001
7.39183966E-001
7.20122277E-001
7.02065074E-001
7.21264461E-001
5.97723654E-001
6.15204632E-001
5.79989082E-001
5.64758378E-001
5.81212133E-001
4.66358409E-001
4.18336067E-001
4.49241224E-001
5.47268701E-001
5.49893930E-001
2.97462184E-001
3.12003839E-001
2.61973445E-001
2.76503382E-001
2.25645401E-001
2.39998520E-001
1.88768002E-001
2.02893478E-001
1.75146354E-001
1.65385632E-001
1.02460216E-001
1.27251512E-001
1.17594353E-001
9.31981922E-002
4.06716999E-002
4.68443996E-002
6.23718451E-002
7.66817969E-002
8.80493804E-002
4.94910394E-002
5.06055186E-002
4.45033584E-001
4.48313378E-001
4.82949440E-001
4.97531967E-001
4.85899099E-001
4.70129831E-001
4.23649052E-001
4.43836494E-001
4.26626577E-001
4.47046285E-001
4.44897921E-001
4.20922434E-001
3.93330935E-001
3.71908184E-001
4.05988605E-001
3.31714285E-001
3.14138621E-001
3.41433799E-001
3.04230103E-001
2.81502295E-001
2.70619891E-001
2.46662729E-001
2.24554080E-001
2.13760876E-001
1.89111545E-001
1.99914179E-001
1.78484504E-001
1.54563195E-001
1.65142269E-001
1.86856276E-001
1.62967504E-001
1.44123553E-001
1.67369727E-001
8.07619311E-002
7.76311702E-002
6.03177713E-002
9.20743548E-001
9.63482232E-001
9.07892831E-001
9.59344800E-001
1.00000000E+000
9.83416984E-001
7.77347112E-001
7.98576582E-001
7.57999006E-001
7.58771207E-001
6.83191609E-001
6.65536192E-001
6.84518188E-001
6.64228746E-001
7.01161960E-001
6.47114325E-001
6.30487564E-001
6.49012745E-001
6.12644201E-001
5.98162067E-001
6.16051878E-001
5.80962315E-001
5.71304296E-001
5.88345497E-001
5.79486727E-001
5.62723317E-001
5.53030541E-001
5.68502160E-001
5.54837680E-001
4.63208942E-001
4.67245979E-001
4.84616128E-001
4.68398795E-001
4.69031837E-001
4.86809426E-001
4.68620012E-001
4.67880671E-001
4.58105535E-001
1.00000000E+000
9.98339025E-001
9.95240783E-001
9.97045919E-001
9.92960752E-001
9.94849145E-001
1.00000000E+000
9.75338814E-001
9.70755382E-001
8.70186195E-002
5.10811151E-001
3.86513695E-001
9.26263612E-001
9.29223498E-001
8.63691744E-001
4.56273600E-001
4.15345920E-001
3.51685118E-001
3.57152426E-001
3.14271147E-001
3.22275565E-001
2.76504233E-001
2.86181006E-001
2.39390324E-001
2.49774960E-001
2.03055952E-001
8.40984876E-001
8.14244882E-001
7.75792614E-001
7.38252528E-001
8.29416087E-001
7.04623449E-001
6.85385947E-001
6.27605162E-001
5.92056859E-001
5.58938770E-001
9.08179998E-001
9.23911639E-001
9.19881104E-001
9.33066619E-001
9.35509271E-001
7.22458981E-001
1.51603570E-001
9.11179166E-002
6.42959523E-002
5.27668865E-001
5.07446001E-001
3.29890178E-001
3.58035774E-001
2.96119413E-001
2.60498809E-001
2.35344260E-001
1.75707847E-001
1.41147787E-001
2.11039511E-001
1.01792413E-001
1.21643700E-001
5.33427049E-001
5.14053196E-001
5.08214729E-001
5.23046366E-001
5.40862567E-001
5.99211353E-001
9.72192646E-001
9.29542050E-001
9.43850301E-001
9.21869939E-001
1.08767021E-001
9.47104470E-001
9.57086807E-001
9.32830699E-001
9.73257269E-001
4.58423944E-002
1.00000000E+000
9.17628701E-001
9.18179650E-001
9.20930641E-001
5.33854958E-001
6.31878404E-001
6.66716813E-001
7.03310831E-001
7.40534716E-001
9.00481752E-001
9.02146214E-001
8.79405788E-001
1.31928694E-001
9.33655609E-001
-5.49907342E-016
4.66427814E-003
9.90530886E-003
-4.44089210E-016
9.90772475E-001
