# vtk DataFile Version 1.0
ECM-CELL DIFFUSION-MECHANICS
ASCII

DATASET UNSTRUCTURED_GRID
POINTS      260 float
1.50000000E+001 3.00000000E+001 0.00000000E+000
1.37500000E+001 2.87500000E+001 0.00000000E+000
1.30000000E+001 3.00000000E+001 0.00000000E+000
1.17500000E+001 2.87500000E+001 0.00000000E+000
1.25000000E+001 2.75000000E+001 0.00000000E+000
1.10000000E+001 3.00000000E+001 0.00000000E+000
1.12500000E+001 2.62500000E+001 0.00000000E+000
9.75000000E+000 2.87500000E+001 0.00000000E+000
9.00000000E+000 3.00000000E+001 0.00000000E+000
8.50000000E+000 2.75000000E+001 0.00000000E+000
1.00000000E+001 2.50000000E+001 0.00000000E+000
7.00000000E+000 3.00000000E+001 0.00000000E+000
8.15030000E+000 2.56000000E+001 0.00000000E+000
6.65030000E+000 2.81000000E+001 0.00000000E+000
8.75000000E+000 2.37500000E+001 0.00000000E+000
6.30050000E+000 2.61990000E+001 0.00000000E+000
6.90030000E+000 2.43500000E+001 0.00000000E+000
5.00000000E+000 3.00000000E+001 0.00000000E+000
4.65030000E+000 2.81000000E+001 0.00000000E+000
7.50000000E+000 2.25000000E+001 0.00000000E+000
4.10350000E+000 2.64240000E+001 0.00000000E+000
4.53440000E+000 2.44340000E+001 0.00000000E+000
3.00000000E+000 3.00000000E+001 0.00000000E+000
5.13410000E+000 2.25840000E+001 0.00000000E+000
6.25000000E+000 2.12500000E+001 0.00000000E+000
2.45330000E+000 2.83240000E+001 0.00000000E+000
1.90660000E+000 2.66490000E+001 0.00000000E+000
2.33740000E+000 2.46590000E+001 0.00000000E+000
1.00000000E+000 3.00000000E+001 0.00000000E+000
3.88410000E+000 2.13340000E+001 0.00000000E+000
5.00000000E+000 2.00000000E+001 0.00000000E+000
2.76820000E+000 2.26680000E+001 0.00000000E+000
4.53280000E-001 2.83240000E+001 0.00000000E+000
1.85340000E-001 2.55120000E+001 0.00000000E+000
5.00000000E+000 1.81250000E+001 0.00000000E+000
6.16170000E-001 2.35220000E+001 0.00000000E+000
3.43600000E+000 1.92330000E+001 0.00000000E+000
2.32010000E+000 2.05670000E+001 0.00000000E+000
-1.00000000E+000 3.00000000E+001 0.00000000E+000
-1.26790000E+000 2.71880000E+001 0.00000000E+000
6.16170000E-001 2.16470000E+001 0.00000000E+000
5.00000000E+000 1.62500000E+001 0.00000000E+000
3.43600000E+000 1.73580000E+001 0.00000000E+000
-1.53590000E+000 2.43750000E+001 0.00000000E+000
1.87210000E+000 1.84660000E+001 0.00000000E+000
-3.00000000E+000 3.00000000E+001 0.00000000E+000
-3.00000000E+000 2.81250000E+001 0.00000000E+000
1.68080000E-001 1.95450000E+001 0.00000000E+000
-1.53590000E+000 2.25000000E+001 0.00000000E+000
5.00000000E+000 1.43750000E+001 0.00000000E+000
3.26790000E+000 1.53130000E+001 0.00000000E+000
-3.26790000E+000 2.53130000E+001 0.00000000E+000
1.70400000E+000 1.64200000E+001 0.00000000E+000
-1.53590000E+000 2.06250000E+001 0.00000000E+000
1.68080000E-001 1.76700000E+001 0.00000000E+000
-3.26790000E+000 2.34380000E+001 0.00000000E+000
-1.53590000E+000 1.87500000E+001 0.00000000E+000
-5.00000000E+000 3.00000000E+001 0.00000000E+000
-5.00000000E+000 2.81250000E+001 0.00000000E+000
-3.26790000E+000 2.15630000E+001 0.00000000E+000
5.00000000E+000 1.25000000E+001 0.00000000E+000
3.26790000E+000 1.34380000E+001 0.00000000E+000
-5.00000000E+000 2.62500000E+001 0.00000000E+000
1.53590000E+000 1.43750000E+001 0.00000000E+000
-5.00000000E+000 2.43750000E+001 0.00000000E+000
-3.55270000E-015 1.56250000E+001 0.00000000E+000
-3.26790000E+000 1.96880000E+001 0.00000000E+000
-1.53590000E+000 1.68750000E+001 0.00000000E+000
-5.00000000E+000 2.25000000E+001 0.00000000E+000
5.00000000E+000 1.06250000E+001 0.00000000E+000
3.26790000E+000 1.15630000E+001 0.00000000E+000
-3.26790000E+000 1.78130000E+001 0.00000000E+000
1.53590000E+000 1.25000000E+001 0.00000000E+000
-5.00000000E+000 2.06250000E+001 0.00000000E+000
-3.55270000E-015 1.37500000E+001 0.00000000E+000
-1.53590000E+000 1.50000000E+001 0.00000000E+000
-5.00000000E+000 1.87500000E+001 0.00000000E+000
-3.26790000E+000 1.59370000E+001 0.00000000E+000
3.26790000E+000 9.68750000E+000 0.00000000E+000
5.00000000E+000 8.75000000E+000 0.00000000E+000
-3.55270000E-015 1.18750000E+001 0.00000000E+000
1.53590000E+000 1.06250000E+001 0.00000000E+000
-1.53590000E+000 1.31250000E+001 0.00000000E+000
-5.00000000E+000 1.68750000E+001 0.00000000E+000
-3.26790000E+000 1.40620000E+001 0.00000000E+000
-1.53590000E+000 1.12500000E+001 0.00000000E+000
-3.55270000E-015 1.00000000E+001 0.00000000E+000
-5.00000000E+000 1.50000000E+001 0.00000000E+000
3.26790000E+000 7.81250000E+000 0.00000000E+000
1.53590000E+000 8.75000000E+000 0.00000000E+000
5.00000000E+000 6.87500000E+000 0.00000000E+000
-3.26790000E+000 1.21880000E+001 0.00000000E+000
-5.00000000E+000 1.31250000E+001 0.00000000E+000
-1.53590000E+000 9.37500000E+000 0.00000000E+000
-3.55270000E-015 8.12500000E+000 0.00000000E+000
1.53590000E+000 6.87500000E+000 0.00000000E+000
3.26790000E+000 5.93750000E+000 0.00000000E+000
-3.26790000E+000 1.03130000E+001 0.00000000E+000
5.00000000E+000 5.00000000E+000 0.00000000E+000
-5.00000000E+000 1.12500000E+001 0.00000000E+000
-1.53590000E+000 7.50000000E+000 0.00000000E+000
1.77640000E-015 6.25000000E+000 0.00000000E+000
-3.26790000E+000 8.43750000E+000 0.00000000E+000
1.53590000E+000 5.00000000E+000 0.00000000E+000
3.26790000E+000 4.06250000E+000 0.00000000E+000
5.00000000E+000 3.12500000E+000 0.00000000E+000
-5.00000000E+000 9.37500000E+000 0.00000000E+000
-1.53590000E+000 5.62500000E+000 0.00000000E+000
1.77640000E-015 4.37500000E+000 0.00000000E+000
-3.26790000E+000 6.56250000E+000 0.00000000E+000
1.53590000E+000 3.12500000E+000 0.00000000E+000
-5.00000000E+000 7.50000000E+000 0.00000000E+000
3.26790000E+000 2.18750000E+000 0.00000000E+000
5.00000000E+000 1.25000000E+000 0.00000000E+000
-1.53590000E+000 3.75000000E+000 0.00000000E+000
-3.26790000E+000 4.68750000E+000 0.00000000E+000
1.77640000E-015 2.50000000E+000 0.00000000E+000
-5.00000000E+000 5.62500000E+000 0.00000000E+000
1.53590000E+000 1.25000000E+000 0.00000000E+000
3.26790000E+000 3.12500000E-001 0.00000000E+000
5.00000000E+000 -6.25000000E-001 0.00000000E+000
-1.53590000E+000 1.87500000E+000 0.00000000E+000
-3.26790000E+000 2.81250000E+000 0.00000000E+000
1.77640000E-015 6.25000000E-001 0.00000000E+000
-5.00000000E+000 3.75000000E+000 0.00000000E+000
1.53590000E+000 -6.25000000E-001 0.00000000E+000
3.26790000E+000 -1.56250000E+000 0.00000000E+000
5.00000000E+000 -2.50000000E+000 0.00000000E+000
-3.26790000E+000 9.37500000E-001 0.00000000E+000
-5.00000000E+000 1.87500000E+000 0.00000000E+000
1.56710000E+000 -2.25410000E+000 0.00000000E+000
3.29910000E+000 -3.19160000E+000 0.00000000E+000
-2.19210000E+000 -7.36060000E-001 0.00000000E+000
-6.56170000E-001 -1.98610000E+000 0.00000000E+000
5.00000000E+000 -4.37500000E+000 0.00000000E+000
-5.00000000E+000 0.00000000E+000 0.00000000E+000
1.59820000E+000 -3.88330000E+000 0.00000000E+000
-3.92410000E+000 -1.67360000E+000 0.00000000E+000
3.29910000E+000 -5.06660000E+000 0.00000000E+000
-6.25000000E-001 -3.61520000E+000 0.00000000E+000
-6.82560000E+000 0.00000000E+000 0.00000000E+000
5.00000000E+000 -6.25000000E+000 0.00000000E+000
-2.84820000E+000 -3.34710000E+000 0.00000000E+000
-5.91280000E+000 -1.73210000E+000 0.00000000E+000
4.50870000E-001 -5.28870000E+000 0.00000000E+000
-8.65120000E+000 0.00000000E+000 0.00000000E+000
2.15180000E+000 -6.47210000E+000 0.00000000E+000
-1.77240000E+000 -5.02070000E+000 0.00000000E+000
-4.83690000E+000 -3.40560000E+000 0.00000000E+000
-7.73840000E+000 -1.73210000E+000 0.00000000E+000
-1.04770000E+001 0.00000000E+000 0.00000000E+000
5.00000000E+000 -8.12500000E+000 0.00000000E+000
-3.76110000E+000 -5.07920000E+000 0.00000000E+000
-6.96490000E-001 -6.69420000E+000 0.00000000E+000
-6.82560000E+000 -3.46410000E+000 0.00000000E+000
2.92250000E+000 -8.12500000E+000 0.00000000E+000
-9.56410000E+000 -1.73210000E+000 0.00000000E+000
-1.23020000E+001 0.00000000E+000 0.00000000E+000
-2.68520000E+000 -6.75270000E+000 0.00000000E+000
-5.74970000E+000 -5.13770000E+000 0.00000000E+000
-8.65120000E+000 -3.46410000E+000 0.00000000E+000
7.42600000E-002 -8.34710000E+000 0.00000000E+000
5.00000000E+000 -1.00000000E+001 0.00000000E+000
-1.13900000E+001 -1.73210000E+000 0.00000000E+000
-4.67390000E+000 -6.81120000E+000 0.00000000E+000
2.92250000E+000 -1.00000000E+001 0.00000000E+000
-1.41280000E+001 0.00000000E+000 0.00000000E+000
-7.73840000E+000 -5.19620000E+000 0.00000000E+000
-2.00320000E+000 -8.34710000E+000 0.00000000E+000
-1.04770000E+001 -3.46410000E+000 0.00000000E+000
8.45000000E-001 -1.00000000E+001 0.00000000E+000
-1.32150000E+001 -1.73210000E+000 0.00000000E+000
-6.66260000E+000 -6.86970000E+000 0.00000000E+000
-3.99190000E+000 -8.40560000E+000 0.00000000E+000
-9.56410000E+000 -5.19620000E+000 0.00000000E+000
-1.59540000E+001 0.00000000E+000 0.00000000E+000
-1.23250000E+000 -1.00000000E+001 0.00000000E+000
-1.23020000E+001 -3.46410000E+000 0.00000000E+000
-1.50410000E+001 -1.73210000E+000 0.00000000E+000
-6.06940000E+000 -8.40560000E+000 0.00000000E+000
-8.65120000E+000 -6.92820000E+000 0.00000000E+000
-3.31000000E+000 -1.00000000E+001 0.00000000E+000
-1.19980000E+001 -5.00000000E+000 0.00000000E+000
-1.76710000E+001 0.00000000E+000 0.00000000E+000
-1.41280000E+001 -3.46410000E+000 0.00000000E+000
-8.05810000E+000 -8.46410000E+000 0.00000000E+000
-5.38750000E+000 -1.00000000E+001 0.00000000E+000
-1.68130000E+001 -1.73210000E+000 0.00000000E+000
-1.10860000E+001 -6.73210000E+000 0.00000000E+000
-1.38240000E+001 -5.00000000E+000 0.00000000E+000
-1.59000000E+001 -3.46410000E+000 0.00000000E+000
-1.93890000E+001 0.00000000E+000 0.00000000E+000
-7.46500000E+000 -1.00000000E+001 0.00000000E+000
-1.01290000E+001 -8.46410000E+000 0.00000000E+000
-1.85300000E+001 -1.73210000E+000 0.00000000E+000
-1.35200000E+001 -6.53590000E+000 0.00000000E+000
-1.56580000E+001 -5.00000000E+000 0.00000000E+000
-1.76710000E+001 -3.46410000E+000 0.00000000E+000
-2.08960000E+001 0.00000000E+000 0.00000000E+000
-9.53550000E+000 -1.00000000E+001 0.00000000E+000
-1.25630000E+001 -8.26790000E+000 0.00000000E+000
-2.01430000E+001 -1.56520000E+000 0.00000000E+000
-1.53540000E+001 -6.53590000E+000 0.00000000E+000
-1.74290000E+001 -5.00000000E+000 0.00000000E+000
-1.92840000E+001 -3.29720000E+000 0.00000000E+000
-2.24030000E+001 0.00000000E+000 0.00000000E+000
-1.16060000E+001 -1.00000000E+001 0.00000000E+000
-1.44770000E+001 -8.26790000E+000 0.00000000E+000
-2.16500000E+001 -1.56520000E+000 0.00000000E+000
-1.71870000E+001 -6.53590000E+000 0.00000000E+000
-2.08960000E+001 -3.13030000E+000 0.00000000E+000
-1.91030000E+001 -5.07750000E+000 0.00000000E+000
-2.37020000E+001 0.00000000E+000 0.00000000E+000
-1.35200000E+001 -1.00000000E+001 0.00000000E+000
-1.63110000E+001 -8.26790000E+000 0.00000000E+000
-1.88610000E+001 -6.61340000E+000 0.00000000E+000
-2.37640000E+001 -1.40300000E+000 0.00000000E+000
-2.07150000E+001 -4.91060000E+000 0.00000000E+000
-2.50000000E+001 0.00000000E+000 0.00000000E+000
-1.54340000E+001 -1.00000000E+001 0.00000000E+000
-2.30110000E+001 -2.96820000E+000 0.00000000E+000
-1.80640000E+001 -8.26790000E+000 0.00000000E+000
-2.50630000E+001 -1.40300000E+000 0.00000000E+000
-2.05340000E+001 -6.69090000E+000 0.00000000E+000
-2.62940000E+001 -1.70370000E-001 0.00000000E+000
-2.22300000E+001 -5.07330000E+000 0.00000000E+000
-1.71870000E+001 -1.00000000E+001 0.00000000E+000
-1.97370000E+001 -8.34550000E+000 0.00000000E+000
-2.51250000E+001 -2.80600000E+000 0.00000000E+000
-2.63130000E+001 -1.73790000E+000 0.00000000E+000
-2.20490000E+001 -6.85360000E+000 0.00000000E+000
-2.75000000E+001 -6.69870000E-001 0.00000000E+000
-1.89410000E+001 -1.00000000E+001 0.00000000E+000
-2.43440000E+001 -4.91120000E+000 0.00000000E+000
-2.13300000E+001 -8.34550000E+000 0.00000000E+000
-2.72280000E+001 -2.65300000E+000 0.00000000E+000
-2.35640000E+001 -7.01630000E+000 0.00000000E+000
-2.05340000E+001 -1.00000000E+001 0.00000000E+000
-2.85360000E+001 -1.46450000E+000 0.00000000E+000
-2.61540000E+001 -4.56570000E+000 0.00000000E+000
-2.28450000E+001 -8.50820000E+000 0.00000000E+000
-2.53730000E+001 -6.67090000E+000 0.00000000E+000
-2.21270000E+001 -1.00000000E+001 0.00000000E+000
-2.93300000E+001 -2.50000000E+000 0.00000000E+000
-2.42820000E+001 -8.50820000E+000 0.00000000E+000
-2.82560000E+001 -4.41270000E+000 0.00000000E+000
-2.35640000E+001 -1.00000000E+001 0.00000000E+000
-2.71830000E+001 -6.32540000E+000 0.00000000E+000
-2.60910000E+001 -8.16270000E+000 0.00000000E+000
-2.98300000E+001 -3.70590000E+000 0.00000000E+000
-2.85910000E+001 -5.66270000E+000 0.00000000E+000
-2.50000000E+001 -1.00000000E+001 0.00000000E+000
-2.73410000E+001 -7.82780000E+000 0.00000000E+000
-2.82560000E+001 -6.91270000E+000 0.00000000E+000
-3.00000000E+001 -5.00000000E+000 0.00000000E+000
-2.62940000E+001 -9.82960000E+000 0.00000000E+000
-2.98300000E+001 -6.29410000E+000 0.00000000E+000
-2.75000000E+001 -9.33010000E+000 0.00000000E+000
-2.93300000E+001 -7.50000000E+000 0.00000000E+000
-2.85360000E+001 -8.53550000E+000 0.00000000E+000

CELLS      107      749
   6         218         231         228         224         229         222  
   6         243         247         228         245         239         235  
   6         258         257         247         259         252         253  
   6         231         243         228         238         235         229  
   6         254         258         247         256         253         250  
   6         257         251         247         255         248         252  
   6         205         218         228         212         222         216  
   6         251         242         236         246         240         244  
   6         191         205         210         198         208         201  
   6         242         232         223         237         227         234  
   6         236         242         223         240         234         230  
   6         236         223         210         230         217         225  
   6         251         236         247         244         241         248  
   6         247         236         228         241         233         239  
   6         175         191         197         183         194         187  
   6         210         205         228         208         216         220  
   6         191         210         197         201         204         194  
   6         197         210         223         204         217         211  
   6         232         219         209         226         214         221  
   6          30          19          31          24          23          29  
   6          19          10          15          14          12          16  
   6          10           4          11           6           7           9  
   6           4           0           5           1           2           3  
   6           4           5          11           3           8           7  
   6         135         145         154         140         149         143  
   6         145         157         169         150         163         156  
   6         157         175         184         166         178         171  
   6         223         232         209         227         221         215  
   6         223         209         197         215         203         211  
   6         197         209         184         203         196         190  
   6         197         184         175         190         178         187  
   6         247         243         254         245         249         250  
   6         162         141         170         151         155         165  
   6          98          79          95          90          88          96  
   6          57          62          38          58          46          45  
   6          87          99          82          92          91          84  
   6         127         113         125         120         119         126  
   6          60          41          63          49          50          61  
   6          68          76          53          73          66          59  
   6         111         124         107         117         115         109  
   6         141         127         136         134         131         138  
   6          79          60          81          69          70          78  
   6          62          68          43          64          55          51  
   6          99         111          93         106         102          97  
   6         113          98         110         105         104         112  
   6          41          30          44          34          36          42  
   6          76          87          67          83          77          71  
   6         124         135         121         129         128         122  
   6         219         206         195         213         200         207  
   6         209         219         195         214         207         202  
   6         209         195         184         202         189         196  
   6         184         195         169         189         182         177  
   6         184         169         157         177         163         171  
   6          31          19          15          23          16          21  
   6          31          15          26          21          20          27  
   6          30          31          44          29          37          36  
   6          15          10          11          12           9          13  
   6          15          11          22          13          17          18  
   6         154         145         169         149         156         160  
   6         154         169         180         160         174         167  
   6         180         169         195         174         182         188  
   6         154         180         164         167         172         159  
   6         135         154         142         143         148         137  
   6          95          79          81          88          78          89  
   6          95          81          93          89          86          94  
   6          93          81          82          86          80          85  
   6          93          82          99          85          91          97  
   6          53          76          67          66          71          56  
   6          53          67          44          56          54          47  
   6          44          67          63          54          65          52  
   6          44          63          41          52          50          42  
   6          43          68          53          55          59          48  
   6          43          53          31          48          40          35  
   6          67          87          82          77          84          75  
   6          67          82          63          75          74          65  
   6          63          82          81          74          80          72  
   6          63          81          60          72          70          61  
   6         125         113         110         119         112         118  
   6         125         110         121         118         116         123  
   6         121         110         107         116         108         114  
   6         121         107         124         114         115         122  
   6         136         127         125         131         126         130  
   6         136         125         142         130         133         139  
   6         110          98          95         104          96         103  
   6         110          95         107         103         101         108  
   6         107          95          93         101          94         100  
   6         107          93         111         100         102         109  
   6         121         135         142         128         137         132  
   6          44          31          53          37          40          47  
   6          62          43          38          51          39          46  
   6         141         153         170         146         161         155  
   6         195         206         180         200         193         188  
   6         125         121         142         123         132         133  
   6         164         180         192         172         185         179  
   6         192         180         206         185         193         199  
   6         154         164         142         159         152         148  
   6         142         164         153         152         158         147  
   6         153         164         181         158         173         168  
   6         181         164         192         173         179         186  
   6         142         153         136         147         144         139  
   6         136         153         141         144         146         138  
   6         170         153         181         161         168         176  
   6          22          38          26          28          32          25  
   6          26          38          43          32          39          33  
   6          26          43          31          33          35          27  
   6          22          26          15          25          20          18  
   6         228         236         210         233         225         220  

CELL_TYPES      107
   22    22    22    22    22    22    22    22    22    22    22    22    22    22    22    22    22    22    22    22    22    22    22    22    22    22    22    22    22    22    22    22    22    22    22    22    22    22    22    22    22    22    22    22    22    22    22    22    22    22    22    22    22    22    22    22    22    22    22    22    22    22    22    22    22    22    22    22    22    22    22    22    22    22    22    22    22    22    22    22    22    22    22    22    22    22    22    22    22    22    22    22    22    22    22    22    22    22    22    22    22    22    22    22    22    22    22 
POINT_DATA      260
SCALARS Ux float
LOOKUP_TABLE default
1.00000000E+000
1.00000000E+000
1.53131315E+000
2.23881191E+000
1.00000000E+000
2.95031605E+000
1.00000000E+000
3.90175843E+000
4.74280351E+000
4.90455422E+000
1.00000000E+000
6.98394492E+000
3.93127271E+000
7.37333444E+000
1.00000000E+000
6.92664843E+000
4.78583848E+000
9.65602989E+000
1.00346290E+001
1.00000000E+000
1.04140254E+001
8.84872364E+000
1.20421537E+001
6.26619230E+000
1.00000000E+000
1.27641455E+001
1.33721788E+001
1.29941956E+001
1.44342028E+001
9.43791875E+000
1.00000000E+000
1.24891314E+001
1.50057615E+001
1.57218657E+001
1.73870863E+001
1.60865499E+001
1.48929657E+001
1.47571303E+001
1.59809226E+001
1.65423049E+001
1.72912652E+001
2.35691445E+001
2.05550064E+001
1.76477693E+001
2.01691923E+001
1.73164782E+001
1.74077310E+001
2.03850347E+001
1.88367698E+001
2.79656431E+001
2.61119142E+001
1.83414814E+001
2.45779852E+001
2.05491433E+001
2.35318883E+001
1.93502229E+001
2.29942736E+001
1.75479656E+001
1.76778600E+001
2.08349888E+001
3.12499010E+001
2.97859886E+001
1.81036605E+001
2.84188876E+001
1.90053199E+001
2.69697271E+001
2.28109910E+001
2.56819905E+001
2.02352887E+001
3.42614319E+001
3.29074428E+001
2.51312308E+001
3.17133131E+001
2.19813523E+001
3.00692363E+001
2.85895147E+001
2.40758769E+001
2.77312284E+001
3.55009135E+001
3.65357874E+001
3.28437096E+001
3.42984206E+001
3.12544366E+001
2.65621717E+001
3.03188286E+001
3.39042585E+001
3.53085043E+001
2.90488399E+001
3.76944614E+001
3.67349572E+001
3.86670050E+001
3.28530061E+001
3.16844825E+001
3.60548353E+001
3.74371280E+001
3.85570438E+001
3.94981230E+001
3.51552346E+001
4.01900458E+001
3.39803380E+001
3.81149010E+001
3.91961052E+001
3.72075937E+001
4.02650661E+001
4.09720857E+001
4.16280273E+001
3.62615188E+001
3.95972025E+001
4.06340350E+001
3.89262863E+001
4.14112266E+001
3.80190288E+001
4.21242252E+001
4.25465644E+001
4.09655974E+001
4.03032143E+001
4.17198650E+001
3.96840959E+001
4.24793824E+001
4.30217788E+001
4.34398754E+001
4.17368978E+001
4.12533186E+001
4.25041841E+001
4.07251209E+001
4.30766953E+001
4.36794270E+001
4.39183267E+001
4.18288233E+001
4.15240103E+001
4.36385783E+001
4.41083080E+001
4.23932072E+001
4.31189237E+001
4.44129433E+001
4.11223150E+001
4.39289197E+001
4.16208067E+001
4.44550699E+001
4.33552043E+001
3.94742336E+001
4.45160412E+001
4.21717700E+001
4.02390968E+001
4.39009462E+001
3.74177264E+001
4.45034877E+001
4.29885777E+001
4.11153819E+001
3.85149799E+001
3.52959003E+001
4.48451572E+001
4.18815890E+001
4.34922159E+001
3.93117083E+001
4.47517325E+001
3.64342628E+001
3.26004970E+001
4.26428015E+001
4.03953867E+001
3.75404954E+001
4.39673496E+001
4.48784939E+001
3.40233839E+001
4.12022718E+001
4.47896736E+001
2.98047816E+001
3.85159804E+001
4.30653375E+001
3.51835882E+001
4.41570764E+001
3.12785029E+001
3.96374952E+001
4.18140061E+001
3.64389714E+001
2.64354597E+001
4.34881902E+001
3.27222508E+001
2.81964405E+001
4.01849996E+001
3.74260782E+001
4.22016411E+001
3.31704793E+001
2.31777045E+001
2.96929410E+001
3.81782177E+001
4.08015437E+001
2.48798936E+001
3.45157858E+001
3.02620261E+001
2.66585118E+001
1.93854774E+001
3.87344595E+001
3.57604729E+001
2.13631847E+001
3.06863104E+001
2.70997378E+001
2.30992662E+001
1.59504212E+001
3.65274159E+001
3.23035682E+001
1.77477826E+001
2.76608278E+001
2.36564796E+001
1.97814015E+001
1.19606542E+001
3.36319511E+001
2.91841960E+001
1.41275865E+001
2.40669396E+001
1.60074120E+001
2.02108313E+001
7.49695730E+000
3.08193795E+001
2.58467500E+001
2.07017774E+001
8.09506849E+000
1.66467610E+001
-3.33066907E-016
2.73913819E+001
1.10211676E+001
2.23419787E+001
4.62546057E+000
1.68769142E+001
-1.25455202E-014
1.32295534E+001
2.41533682E+001
1.86751435E+001
6.11244028E+000
2.71199643E+000
1.34075039E+001
1.17683641E-014
2.03609321E+001
8.62747852E+000
1.48991453E+001
2.34557594E+000
9.78085873E+000
1.68153760E+001
1.37667655E-014
5.11973725E+000
1.07781427E+001
5.85086417E+000
1.27124019E+001
0.00000000E+000
6.90121174E+000
1.96392284E+000
8.13850584E+000
3.01161730E+000
3.48364163E+000
8.88178420E-015
1.44879527E+000
-5.32907052E-015
2.01894958E+000
1.41395401E+000
7.10542736E-015
1.06581410E-014
1.06581410E-014
7.10542736E-015
7.10542736E-015
-0.00000000E+000
