# vtk DataFile Version 1.0
ECM-CELL DIFFUSION-MECHANICS
ASCII

DATASET UNSTRUCTURED_GRID
POINTS      732 float
1.50000000E+001 3.00000000E+001 0.00000000E+000
-5.00000000E+000 3.00000000E+001 0.00000000E+000
-5.00000000E+000 0.00000000E+000 0.00000000E+000
-2.50000000E+001 0.00000000E+000 0.00000000E+000
-2.69134178E+001 -9.61939812E+000 0.00000000E+000
-2.85355339E+001 -8.53553391E+000 0.00000000E+000
-2.96193981E+001 -6.91341734E+000 0.00000000E+000
-3.00000000E+001 -5.00000000E+000 0.00000000E+000
-2.96193981E+001 -3.08658290E+000 0.00000000E+000
-2.85355339E+001 -1.46446609E+000 0.00000000E+000
-2.69134178E+001 -3.80602330E-001 0.00000000E+000
-2.50000000E+001 -1.00000000E+001 0.00000000E+000
5.00000000E+000 -1.00000000E+001 0.00000000E+000
5.00000000E+000 2.00000000E+001 0.00000000E+000
1.30000000E+001 3.00000000E+001 0.00000000E+000
1.10000000E+001 3.00000000E+001 0.00000000E+000
9.00000000E+000 3.00000000E+001 0.00000000E+000
7.00000000E+000 3.00000000E+001 0.00000000E+000
5.00000000E+000 3.00000000E+001 0.00000000E+000
3.00000000E+000 3.00000000E+001 0.00000000E+000
1.00000000E+000 3.00000000E+001 0.00000000E+000
-1.00000000E+000 3.00000000E+001 0.00000000E+000
-3.00000000E+000 3.00000000E+001 0.00000000E+000
-5.00000000E+000 2.80000000E+001 0.00000000E+000
-5.00000000E+000 2.60000000E+001 0.00000000E+000
-5.00000000E+000 2.40000000E+001 0.00000000E+000
-5.00000000E+000 2.20000000E+001 0.00000000E+000
-5.00000000E+000 2.00000000E+001 0.00000000E+000
-5.00000000E+000 1.80000000E+001 0.00000000E+000
-5.00000000E+000 1.60000000E+001 0.00000000E+000
-5.00000000E+000 1.40000000E+001 0.00000000E+000
-5.00000000E+000 1.20000000E+001 0.00000000E+000
-5.00000000E+000 1.00000000E+001 0.00000000E+000
-5.00000000E+000 8.00000000E+000 0.00000000E+000
-5.00000000E+000 6.00000000E+000 0.00000000E+000
-5.00000000E+000 4.00000000E+000 0.00000000E+000
-5.00000000E+000 2.00000000E+000 0.00000000E+000
-7.00000000E+000 0.00000000E+000 0.00000000E+000
-9.00000000E+000 0.00000000E+000 0.00000000E+000
-1.10000000E+001 0.00000000E+000 0.00000000E+000
-1.30000000E+001 0.00000000E+000 0.00000000E+000
-1.50000000E+001 0.00000000E+000 0.00000000E+000
-1.70000000E+001 0.00000000E+000 0.00000000E+000
-1.90000000E+001 0.00000000E+000 0.00000000E+000
-2.10000000E+001 0.00000000E+000 0.00000000E+000
-2.30000000E+001 0.00000000E+000 0.00000000E+000
3.00000000E+000 -1.00000000E+001 0.00000000E+000
1.00000000E+000 -1.00000000E+001 0.00000000E+000
-1.00000000E+000 -1.00000000E+001 0.00000000E+000
-3.00000000E+000 -1.00000000E+001 0.00000000E+000
-5.00000000E+000 -1.00000000E+001 0.00000000E+000
-7.00000000E+000 -1.00000000E+001 0.00000000E+000
-9.00000000E+000 -1.00000000E+001 0.00000000E+000
-1.10000000E+001 -1.00000000E+001 0.00000000E+000
-1.30000000E+001 -1.00000000E+001 0.00000000E+000
-1.50000000E+001 -1.00000000E+001 0.00000000E+000
-1.70000000E+001 -1.00000000E+001 0.00000000E+000
-1.90000000E+001 -1.00000000E+001 0.00000000E+000
-2.10000000E+001 -1.00000000E+001 0.00000000E+000
-2.30000000E+001 -1.00000000E+001 0.00000000E+000
5.00000000E+000 1.80000000E+001 0.00000000E+000
5.00000000E+000 1.60000000E+001 0.00000000E+000
5.00000000E+000 1.40000000E+001 0.00000000E+000
5.00000000E+000 1.20000000E+001 0.00000000E+000
5.00000000E+000 1.00000000E+001 0.00000000E+000
5.00000000E+000 8.00000000E+000 0.00000000E+000
5.00000000E+000 6.00000000E+000 0.00000000E+000
5.00000000E+000 4.00000000E+000 0.00000000E+000
5.00000000E+000 2.00000000E+000 0.00000000E+000
5.00000000E+000 0.00000000E+000 0.00000000E+000
5.00000000E+000 -2.00000000E+000 0.00000000E+000
5.00000000E+000 -4.00000000E+000 0.00000000E+000
5.00000000E+000 -6.00000000E+000 0.00000000E+000
5.00000000E+000 -8.00000000E+000 0.00000000E+000
6.42857122E+000 2.14285717E+001 0.00000000E+000
7.85714293E+000 2.28571434E+001 0.00000000E+000
9.28571415E+000 2.42857151E+001 0.00000000E+000
1.07142859E+001 2.57142849E+001 0.00000000E+000
1.21428576E+001 2.71428566E+001 0.00000000E+000
1.35714283E+001 2.85714283E+001 0.00000000E+000
-2.55692158E+001 -7.47994947E+000 0.00000000E+000
-2.68123989E+001 -6.65812349E+000 0.00000000E+000
-2.78370075E+001 -5.65078545E+000 0.00000000E+000
-2.49931679E+001 -2.99975061E+000 0.00000000E+000
-6.07402325E+000 -2.51799893E+000 0.00000000E+000
-3.41205382E+000 6.06536293E+000 0.00000000E+000
-7.90601015E+000 -2.16468501E+000 0.00000000E+000
6.93360615E+000 2.85683231E+001 0.00000000E+000
5.03122282E+000 2.85983677E+001 0.00000000E+000
3.07519960E+000 2.83579216E+001 0.00000000E+000
1.02007830E+000 2.82704353E+001 0.00000000E+000
-1.00747931E+000 2.81540108E+001 0.00000000E+000
-2.98253322E+000 2.20530071E+001 0.00000000E+000
-3.14535069E+000 1.99964409E+001 0.00000000E+000
-3.38007402E+000 1.80213890E+001 0.00000000E+000
-3.24730754E+000 1.60810070E+001 0.00000000E+000
-3.22061014E+000 1.40090933E+001 0.00000000E+000
-3.27037716E+000 1.19557343E+001 0.00000000E+000
-3.32515502E+000 9.95609379E+000 0.00000000E+000
-3.37583542E+000 7.99501371E+000 0.00000000E+000
-3.38906217E+000 4.20707273E+000 0.00000000E+000
-3.21241689E+000 2.45526028E+000 0.00000000E+000
-2.81301451E+000 1.00452256E+000 0.00000000E+000
-9.85906696E+000 -1.94350755E+000 0.00000000E+000
-1.18253517E+001 -1.81189597E+000 0.00000000E+000
-1.37737036E+001 -1.72045147E+000 0.00000000E+000
-1.56994905E+001 -1.64893782E+000 0.00000000E+000
-1.76126289E+001 -1.59551537E+000 0.00000000E+000
-1.95252953E+001 -1.56757510E+000 0.00000000E+000
-2.14428196E+001 -1.57937253E+000 0.00000000E+000
-2.40465412E+001 -7.98486996E+000 0.00000000E+000
-2.32975655E+001 -1.60528278E+000 0.00000000E+000
-8.58305335E-001 -8.21509266E+000 0.00000000E+000
-2.85219836E+000 -8.24649334E+000 0.00000000E+000
-4.86234474E+000 -8.28040028E+000 0.00000000E+000
-6.82275486E+000 -8.35858631E+000 0.00000000E+000
-8.72553921E+000 -8.46272755E+000 0.00000000E+000
-1.06668940E+001 -8.49340248E+000 0.00000000E+000
-1.26085234E+001 -8.47250462E+000 0.00000000E+000
-1.45571985E+001 -8.43932819E+000 0.00000000E+000
-1.65147133E+001 -8.41329861E+000 0.00000000E+000
-1.84622021E+001 -8.38815498E+000 0.00000000E+000
-2.03904629E+001 -8.34011364E+000 0.00000000E+000
-2.22757702E+001 -8.22864628E+000 0.00000000E+000
3.32341838E+000 1.79214497E+001 0.00000000E+000
3.49274993E+000 1.58118629E+001 0.00000000E+000
3.45036292E+000 1.38697481E+001 0.00000000E+000
3.40310287E+000 1.19041443E+001 0.00000000E+000
3.36840963E+000 9.92752457E+000 0.00000000E+000
3.33398676E+000 7.94917822E+000 0.00000000E+000
3.27319622E+000 5.98151016E+000 0.00000000E+000
3.14357090E+000 4.00265217E+000 0.00000000E+000
2.93195248E+000 2.00336671E+000 0.00000000E+000
2.85718203E+000 -7.79486522E-002 0.00000000E+000
2.96486330E+000 -2.16540527E+000 0.00000000E+000
3.04931951E+000 -4.18990898E+000 0.00000000E+000
3.07869506E+000 -6.14942598E+000 0.00000000E+000
3.06127834E+000 -8.08621216E+000 0.00000000E+000
8.87478542E+000 2.87956104E+001 0.00000000E+000
1.06500645E+001 2.90019722E+001 0.00000000E+000
9.73117542E+000 2.65182457E+001 0.00000000E+000
4.64431381E+000 2.23340874E+001 0.00000000E+000
8.02427673E+000 2.53785686E+001 0.00000000E+000
6.40424109E+000 2.39808598E+001 0.00000000E+000
-2.30793724E+001 -6.28166199E+000 0.00000000E+000
-2.65148945E+001 -3.90364408E+000 0.00000000E+000
-3.43422222E+000 -1.27146482E+000 0.00000000E+000
1.04067838E+000 2.66475811E+001 0.00000000E+000
1.10761571E+000 -8.16181087E+000 0.00000000E+000
-7.36092031E-001 -6.43063927E+000 0.00000000E+000
-4.75875711E+000 -6.53175259E+000 0.00000000E+000
-6.72676086E+000 -6.65011883E+000 0.00000000E+000
-8.50626945E+000 -6.96918011E+000 0.00000000E+000
-1.03056269E+001 -7.00035810E+000 0.00000000E+000
-1.21337996E+001 -6.91552496E+000 0.00000000E+000
-1.40198870E+001 -6.83708525E+000 0.00000000E+000
-1.59333124E+001 -6.77759314E+000 0.00000000E+000
-1.20785129E+000 1.97240963E+001 0.00000000E+000
-1.32478476E+000 1.64232349E+001 0.00000000E+000
1.96661806E+000 1.56013527E+001 0.00000000E+000
1.83737338E+000 1.38039751E+001 0.00000000E+000
1.66680229E+000 7.95078230E+000 0.00000000E+000
1.58930695E+000 6.05578279E+000 0.00000000E+000
1.41368437E+000 4.18972206E+000 0.00000000E+000
-2.88116503E+000 2.41189423E+001 0.00000000E+000
-1.05743062E+000 2.20182400E+001 0.00000000E+000
-2.06459260E+000 1.80287819E+001 0.00000000E+000
1.76209581E+000 1.18621569E+001 0.00000000E+000
1.71383548E+000 9.90428638E+000 0.00000000E+000
-1.96961384E+001 -6.65574455E+000 0.00000000E+000
1.10382271E+000 -2.44856596E+000 0.00000000E+000
-2.71728683E+000 -6.50229883E+000 0.00000000E+000
-6.94966459E+000 -4.68074226E+000 0.00000000E+000
-8.87774658E+000 -3.94481039E+000 0.00000000E+000
-1.07458334E+001 -3.67898369E+000 0.00000000E+000
-1.26495609E+001 -3.53031301E+000 0.00000000E+000
-1.45555058E+001 -3.42598987E+000 0.00000000E+000
-1.64351330E+001 -3.33984756E+000 0.00000000E+000
-1.82789097E+001 -3.26375914E+000 0.00000000E+000
-1.78273373E+001 -6.72471857E+000 0.00000000E+000
-2.00785789E+001 -3.19971037E+000 0.00000000E+000
-1.49681842E+000 1.40206604E+001 0.00000000E+000
-1.58211720E+000 1.19191847E+001 0.00000000E+000
-1.64738953E+000 9.92495728E+000 0.00000000E+000
-1.70833540E+000 7.99023056E+000 0.00000000E+000
-1.75975442E+000 6.13986826E+000 0.00000000E+000
-1.75903368E+000 4.42714834E+000 0.00000000E+000
-1.57233489E+000 2.89093947E+000 0.00000000E+000
8.35785091E-001 2.16724944E+000 0.00000000E+000
6.82180047E-001 -2.41043478E-001 0.00000000E+000
1.19283760E+000 -4.42227745E+000 0.00000000E+000
5.08529997E+000 2.73792095E+001 0.00000000E+000
3.36510825E+000 2.64843388E+001 0.00000000E+000
2.03854513E+000 1.69918709E+001 0.00000000E+000
-2.18747597E+001 -3.21142745E+000 0.00000000E+000
-2.14750767E+001 -6.53344297E+000 0.00000000E+000
3.87977886E+000 2.02254429E+001 0.00000000E+000
6.80135918E+000 2.67542229E+001 0.00000000E+000
3.63350844E+000 2.38850384E+001 0.00000000E+000
-2.38274765E+001 -3.46659899E+000 0.00000000E+000
1.18041360E+000 -6.30371428E+000 0.00000000E+000
[...]
POINT_DATA      732
SCALARS Ux float
LOOKUP_TABLE default
1.00000000E+000
1.75303306E+001
4.10512141E+001
-1.72119263E-014
-3.57110175E-014
-3.93435284E-014
-2.37344866E-014
-2.85795693E-014
7.68655972E-014
1.13121318E-014
-6.68735900E-015
1.84574578E-014
4.47574849E+001
1.00000000E+000
1.55835736E+000
2.90308886E+000
4.80039958E+000
7.10315222E+000
9.62147735E+000
1.21184474E+001
1.43399488E+001
1.60694193E+001
1.71590985E+001
1.77053614E+001
1.82516851E+001
1.92248160E+001
2.06843234E+001
2.26445283E+001
2.50314742E+001
2.76855032E+001
3.04125195E+001
3.30394916E+001
3.54394540E+001
3.75271626E+001
3.92438087E+001
4.05243574E+001
4.13147770E+001
3.91175071E+001
3.69683669E+001
3.44106737E+001
3.14555329E+001
2.80973973E+001
2.43292740E+001
2.01421322E+001
1.54019036E+001
1.00443551E+001
4.46137895E+001
4.41778048E+001
4.34355937E+001
4.23666305E+001
4.09480786E+001
3.91597917E+001
3.69874198E+001
3.44225618E+001
3.14604036E+001
2.80978789E+001
2.43247221E+001
2.01342909E+001
1.53706444E+001
1.00676662E+001
1.79669587E+001
2.39275990E+001
2.85283530E+001
3.20495383E+001
3.49648837E+001
3.73661766E+001
3.93313324E+001
4.09059779E+001
4.21336059E+001
4.30606921E+001
4.37375351E+001
4.42121149E+001
4.45238461E+001
4.47003533E+001
1.00000000E+000
1.00000000E+000
1.00000000E+000
1.00000000E+000
1.00000000E+000
1.00000000E+000
5.02224575E+000
3.45731474E+000
2.40470726E+000
6.40060349E+000
3.99505989E+001
3.92013225E+001
3.81858080E+001
7.02661674E+000
9.48700359E+000
1.19855304E+001
1.43589577E+001
1.61812390E+001
2.01711301E+001
2.22873891E+001
2.47840234E+001
2.73929142E+001
3.02851019E+001
3.30337251E+001
3.54597936E+001
3.75231550E+001
4.04474588E+001
4.12786849E+001
4.17384058E+001
3.59176070E+001
3.32406587E+001
3.02054072E+001
2.68304599E+001
2.31021848E+001
1.89984380E+001
1.44211960E+001
7.92632417E+000
9.66363481E+000
4.34686760E+001
4.24374619E+001
4.10461413E+001
3.93282840E+001
3.73063056E+001
3.48762713E+001
3.20716608E+001
2.88783849E+001
2.52849363E+001
2.13219515E+001
1.69833784E+001
1.23907504E+001
1.95652660E+001
2.47794629E+001
2.89073594E+001
3.22716155E+001
3.50919695E+001
3.74330708E+001
3.93435959E+001
4.08816101E+001
4.20789593E+001
4.30037662E+001
4.36785055E+001
4.41329787E+001
4.44176716E+001
4.45723570E+001
4.78939075E+000
3.08196751E+000
2.73449853E+000
7.55030436E+000
3.88216999E+000
5.04803676E+000
1.09058415E+001
4.18114039E+000
4.17503954E+001
1.44583721E+001
4.41684288E+001
4.34286005E+001
4.10928000E+001
3.94045821E+001
3.75509227E+001
3.53538670E+001
3.27912266E+001
2.97986488E+001
2.64014505E+001
2.14289153E+001
2.62576339E+001
2.59737127E+001
2.93787291E+001
3.74625013E+001
3.92681296E+001
4.06965604E+001
1.86547082E+001
1.88340964E+001
2.42649122E+001
3.25204361E+001
3.52086861E+001
1.86895065E+001
4.34585039E+001
4.24576357E+001
3.91709101E+001
3.71107024E+001
3.47601387E+001
3.20052148E+001
2.88839399E+001
2.54526056E+001
2.17501893E+001
2.26842853E+001
1.78312970E+001
2.99503407E+001
3.29149700E+001
3.54147801E+001
3.75018119E+001
3.91606459E+001
4.03891471E+001
4.12480321E+001
4.18429348E+001
4.27889366E+001
4.38394934E+001
9.17533458E+000
1.14331270E+001
2.29927699E+001
1.36760600E+001
1.46308825E+001
1.07482178E+001
6.54454083E+000
1.05369786E+001
9.16746075E+000
4.40619282E+001
1.64732150E+001
1.79051886E+000
6.25221205E+000
1.02355154E+001
1.32578798E+001
2.29270095E+001
4.21730987E+001
4.24321658E+001
3.75733974E+001
3.60437354E+001
3.36997521E+001
3.08602487E+001
4.04263429E+001
4.11242904E+001
4.30631950E+001
2.76249136E+001
3.91686221E+001
4.26725061E+001
4.18495373E+001
3.74647169E+001
3.27321143E+001
3.53068721E+001
2.96965794E+001
2.63545108E+001
1.86263780E+001
2.27158573E+001
2.40799213E+001
2.03053145E+001
1.68937086E+001
1.92387703E+001
1.29340339E+001
8.34249560E+000
4.32990427E+001
4.23041851E+001
1.67436287E+001
1.29977800E+001
4.13261176E+001
4.23704784E+001
1.77850431E+001
8.13045747E+000
2.05264424E+000
1.73146205E+001
1.48920404E+000
1.54579082E+000
2.84365138E+000
5.24676371E+000
1.79822005E+000
4.19389477E+000
1.52938975E+001
3.00545907E+000
4.22976324E+001
1.29309673E+001
1.64861826E+001
2.01596984E+001
1.47292860E+001
1.50019670E+001
4.12004491E+001
3.26237364E+000
3.49255970E+000
5.29770196E+000
5.27445491E+000
1.60978882E+001
1.53460530E+001
1.43392480E+001
1.52770132E+001
4.24072869E+001
4.17873524E+001
4.10001119E+001
4.17023789E+001
3.50197549E+001
3.63183580E+001
3.73972377E+001
3.62238334E+001
3.86716129E+001
3.91246294E+001
4.04403370E+001
4.01001885E+001
5.08736226E+000
6.03503075E+000
1.10232828E+001
9.95290495E+000
-1.43635104E-014
2.33532884E+000
4.19590751E+000
1.66553037E+000
1.40457881E+001
1.57750612E+001
1.84074623E+001
1.67705277E+001
3.43475248E-015
1.15867064E+000
1.96198477E+000
7.13679213E-001
9.53803332E+000
6.68578804E+000
6.14607808E+000
9.56668081E+000
3.68925691E+000
5.26003319E+000
5.94885369E+000
3.76666727E+000
7.10453734E+000
8.34924485E+000
9.57859250E+000
8.24351739E+000
5.86950324E+000
6.84731703E+000
4.53431333E+000
1.20635247E+001
1.32788990E+001
1.32225129E+001
1.02795795E+001
9.35098568E+000
1.07501765E+001
1.17339308E+001
1.71976345E+001
1.68363321E+001
1.67000652E+001
1.75732885E+001
1.76041458E+001
1.74366954E+001
1.98920316E+001
2.05466043E+001
1.93416221E+001
1.90650515E+001
1.43935874E+001
1.30358402E+001
1.72252945E+001
1.81623936E+001
1.79232472E+001
1.66380038E+001
2.11626361E+001
2.16047815E+001
2.25569605E+001
2.34915848E+001
2.37929913E+001
2.49632332E+001
2.60659363E+001
2.63379682E+001
2.75853582E+001
2.88413702E+001
2.90516936E+001
3.03769608E+001
3.16847719E+001
3.17470890E+001
3.30512991E+001
3.42831717E+001
3.42735605E+001
3.54564493E+001
3.84084865E+001
3.75275153E+001
3.84352832E+001
3.92198982E+001
3.98717143E+001
3.99430747E+001
4.04848619E+001
4.09082952E+001
4.09918709E+001
4.12589755E+001
4.15078513E+001
4.13589569E+001
4.15250552E+001
4.33730057E+001
4.29054972E+001
4.24503337E+001
4.29844824E+001
3.64501495E+001
3.71001209E+001
3.80927302E+001
3.38343585E+001
3.46278819E+001
3.57388654E+001
3.08377409E+001
3.17706824E+001
3.29834150E+001
2.74687350E+001
2.85647191E+001
2.98270830E+001
2.37207733E+001
2.50136188E+001
2.62649092E+001
1.95542594E+001
2.10999544E+001
2.22935979E+001
1.49396312E+001
1.78452867E+001
1.62113358E+001
1.78387503E+001
2.07211666E+001
1.92019632E+001
2.95391813E+000
4.92020127E+000
5.21683418E+000
3.37165044E+000
4.47217161E+001
4.47433622E+001
4.46697751E+001
4.46057824E+001
4.44055694E+001
4.41834704E+001
4.44330567E+001
4.36661265E+001
4.40154578E+001
4.39275630E+001
4.35951943E+001
4.34599364E+001
4.29949389E+001
4.29433628E+001
4.02327333E+001
3.92457033E+001
4.01011460E+001
4.10722188E+001
4.02962719E+001
3.93676650E+001
3.74296386E+001
3.83614006E+001
3.85175449E+001
3.64923204E+001
3.51169466E+001
3.61378626E+001
3.41141170E+001
3.24344400E+001
3.35208761E+001
3.13391966E+001
2.93423558E+001
3.05225991E+001
2.81453115E+001
2.58481517E+001
2.71301187E+001
1.71600134E+001
1.93247605E+001
1.97048579E+001
1.72203369E+001
2.12177078E+001
2.29574032E+001
2.13699744E+001
1.91577894E+001
2.52275038E+001
2.45649372E+001
2.20119015E+001
2.28547392E+001
2.77373556E+001
2.61478100E+001
2.80737724E+001
2.95326389E+001
2.91212413E+001
2.69514222E+001
2.53668620E+001
3.21509027E+001
3.37465493E+001
3.35775304E+001
3.84379782E+001
3.93383734E+001
3.84002645E+001
3.74460341E+001
3.84109155E+001
3.93065067E+001
4.00246051E+001
4.07923277E+001
4.01583549E+001
4.30543571E+001
4.33709257E+001
4.37350260E+001
4.34273037E+001
4.42019574E+001
4.39975402E+001
4.42919689E+001
4.45020758E+001
4.43864629E+001
4.45090753E+001
4.46278444E+001
4.83141053E+000
5.91274168E+000
3.88934826E+000
3.01857633E+000
3.79127181E+000
1.70922675E+000
1.36916051E+000
1.00000000E+000
1.16501171E+000
2.15287337E+000
2.38968053E+000
7.49654948E-001
2.14493329E+000
1.40776521E+000
-5.20972154E-014
2.18713936E-014
-2.99760217E-014
1.69709400E+000
2.91907598E+000
9.50531167E+000
1.20912721E+001
1.29016899E+001
3.30480037E+000
-1.19348975E-014
3.71483458E+001
3.81221930E+001
1.08899728E+001
2.46749049E+000
1.00000000E+000
1.87993989E+000
4.40019898E+000
3.09376513E+000
1.00000000E+000
9.34569813E+000
1.00079315E+001
1.21253206E+001
1.18356259E+001
1.77594222E+001
1.96263879E+001
1.79289807E+001
1.81249204E+001
1.75042740E+001
2.19591442E+001
2.00226055E+001
2.27949705E+001
2.63055003E+001
2.47072054E+001
1.80928752E+001
2.22863371E+001
2.43981118E+001
2.13340761E+001
2.86636392E+001
2.63973008E+001
3.06710258E+001
3.03794045E+001
3.65338107E+001
3.65262811E+001
3.10128708E+001
3.23868711E+001
3.28280772E+001
3.42064937E+001
3.53632803E+001
3.40671530E+001
4.08991748E+001
4.01645970E+001
4.15222441E+001
4.21191496E+001
4.15600355E+001
4.13727007E+001
4.06973059E+001
4.15730669E+001
4.25792314E+001
4.26313718E+001
3.46510073E+001
3.57543633E+001
3.17680628E+001
3.29913589E+001
2.84900104E+001
2.98294770E+001
2.48086786E+001
2.62635864E+001
2.33535497E+001
2.22841641E+001
1.47477324E+001
1.78526502E+001
1.66804534E+001
1.35717832E+001
6.13022462E+000
7.13372724E+000
9.40623455E+000
1.13982297E+001
1.28271996E+001
7.70043767E+000
7.81185947E+000
4.38461547E+001
4.38564032E+001
4.25124505E+001
4.24192933E+001
4.20103539E+001
4.20274962E+001
4.24529689E+001
4.34570759E+001
4.18273434E+001
4.24057692E+001
4.18864431E+001
4.12289988E+001
4.02106852E+001
3.92869885E+001
4.11100799E+001
3.68285782E+001
3.57024201E+001
3.75621456E+001
3.49098233E+001
3.32506372E+001
3.23233306E+001
3.03349913E+001
2.82611248E+001
2.72119500E+001
2.47731665E+001
2.58944289E+001
2.36423680E+001
2.10358844E+001
2.22290085E+001
2.45860954E+001
2.20108353E+001
1.98272060E+001
2.24303963E+001
1.19786219E+001
1.15623711E+001
9.22026523E+000
1.26860941E+001
6.75861040E+000
1.47761387E+001
8.00626805E+000
1.00000000E+000
4.16444928E+000
2.98324703E+001
2.81279515E+001
3.14692685E+001
3.12628650E+001
3.65018313E+001
3.74842673E+001
3.64323486E+001
3.75144105E+001
3.54424554E+001
3.83736295E+001
3.91649984E+001
3.83585956E+001
3.98122092E+001
4.04083069E+001
3.98318816E+001
4.08468515E+001
4.12294206E+001
4.08335244E+001
4.13197474E+001
4.19709187E+001
4.18648843E+001
4.15251086E+001
4.15640478E+001
4.23388360E+001
4.27525709E+001
4.28725799E+001
4.31908397E+001
4.36020372E+001
4.32920244E+001
4.39639500E+001
4.42720524E+001
4.41265967E+001
1.00000000E+000
1.52141769E+000
2.37422818E+000
1.93897635E+000
3.06593949E+000
2.52955471E+000
1.00000000E+000
5.98839852E+000
7.87122806E+000
1.27897432E+001
4.19463148E+001
3.95682296E+001
1.62949919E+001
1.55412658E+001
2.14911207E+001
4.37807515E+001
4.18232257E+001
3.76589155E+001
3.81843930E+001
3.53485281E+001
3.59793049E+001
3.26312984E+001
3.34280830E+001
2.95521724E+001
3.04898695E+001
2.61471257E+001
2.45602938E+001
2.68904178E+001
3.01388625E+001
3.29852258E+001
2.45150356E+001
3.51448682E+001
3.63870594E+001
3.91803921E+001
4.04177352E+001
4.12680310E+001
1.86812224E+001
1.58279735E+001
1.60727058E+001
1.39140453E+001
1.38937427E+001
3.39205875E+001
2.07249079E+001
1.33241302E+001
9.74834871E+000
4.29219477E+001
4.31483712E+001
3.65868701E+001
3.84019082E+001
3.42374445E+001
3.14394372E+001
2.92868024E+001
2.33910409E+001
1.95133827E+001
2.70196503E+001
1.47083297E+001
1.71693914E+001
4.18188413E+001
4.22605303E+001
4.27775681E+001
4.25458211E+001
4.23675504E+001
4.05619433E+001
7.36965096E+000
1.40752135E+001
1.17069819E+001
1.34592615E+001
1.55894211E+001
1.04676640E+001
9.23176164E+000
1.30731453E+001
6.81152855E+000
7.19480324E+000
1.00000000E+000
1.57823599E+001
1.51892782E+001
1.42032188E+001
4.20845195E+001
3.92185806E+001
3.74629125E+001
3.52560953E+001
3.26228917E+001
1.75736306E+001
1.79163578E+001
2.01740789E+001
1.84197914E+001
1.45787885E+001
3.55271368E-015
8.50581020E-001
1.73006167E+000
-5.68434189E-014
3.57006844E+000
