# vtk DataFile Version 1.0
ECM-CELL DIFFUSION-MECHANICS
ASCII

DATASET UNSTRUCTURED_GRID
POINTS    13139 float
1.50000000E+001 3.00000000E+001 0.00000000E+000
1.48250000E+001 2.98250000E+001 0.00000000E+000
1.47500000E+001 3.00000000E+001 0.00000000E+000
1.45880000E+001 2.98280000E+001 0.00000000E+000
1.46490000E+001 2.96490000E+001 0.00000000E+000
1.45000000E+001 3.00000000E+001 0.00000000E+000
1.44020000E+001 2.97640000E+001 0.00000000E+000
1.44740000E+001 2.94740000E+001 0.00000000E+000
1.42500000E+001 3.00000000E+001 0.00000000E+000
1.42350000E+001 2.95490000E+001 0.00000000E+000
1.41110000E+001 2.98040000E+001 0.00000000E+000
1.42980000E+001 2.92980000E+001 0.00000000E+000
1.40000000E+001 3.00000000E+001 0.00000000E+000
1.41280000E+001 2.93720000E+001 0.00000000E+000
1.39960000E+001 2.95830000E+001 0.00000000E+000
1.38670000E+001 2.97950000E+001 0.00000000E+000
1.41230000E+001 2.91230000E+001 0.00000000E+000
1.37500000E+001 3.00000000E+001 0.00000000E+000
1.37480000E+001 2.95760000E+001 0.00000000E+000
1.38990000E+001 2.92670000E+001 0.00000000E+000
1.36200000E+001 2.97900000E+001 0.00000000E+000
1.39470000E+001 2.89470000E+001 0.00000000E+000
1.35000000E+001 3.00000000E+001 0.00000000E+000
1.36200000E+001 2.93040000E+001 0.00000000E+000
1.34990000E+001 2.95720000E+001 0.00000000E+000
1.37070000E+001 2.90130000E+001 0.00000000E+000
1.33720000E+001 2.97870000E+001 0.00000000E+000
1.37720000E+001 2.87720000E+001 0.00000000E+000
1.33990000E+001 2.93170000E+001 0.00000000E+000
1.32500000E+001 3.00000000E+001 0.00000000E+000
1.34670000E+001 2.90790000E+001 0.00000000E+000
1.32500000E+001 2.95700000E+001 0.00000000E+000
1.35310000E+001 2.88370000E+001 0.00000000E+000
1.31210000E+001 2.97730000E+001 0.00000000E+000
1.31700000E+001 2.93440000E+001 0.00000000E+000
1.32330000E+001 2.91340000E+001 0.00000000E+000
1.35960000E+001 2.85960000E+001 0.00000000E+000
1.30000000E+001 3.00000000E+001 0.00000000E+000
1.32900000E+001 2.89030000E+001 0.00000000E+000
1.29780000E+001 2.94970000E+001 0.00000000E+000
1.33560000E+001 2.86620000E+001 0.00000000E+000
1.28740000E+001 2.97850000E+001 0.00000000E+000
1.29930000E+001 2.92000000E+001 0.00000000E+000
1.30530000E+001 2.89620000E+001 0.00000000E+000
1.34210000E+001 2.84210000E+001 0.00000000E+000
1.27500000E+001 3.00000000E+001 0.00000000E+000
1.31140000E+001 2.87260000E+001 0.00000000E+000
1.26950000E+001 2.95070000E+001 0.00000000E+000
1.27530000E+001 2.92640000E+001 0.00000000E+000
1.31800000E+001 2.84860000E+001 0.00000000E+000
1.26250000E+001 2.97840000E+001 0.00000000E+000
1.28120000E+001 2.90300000E+001 0.00000000E+000
1.28720000E+001 2.87890000E+001 0.00000000E+000
1.32460000E+001 2.82460000E+001 0.00000000E+000
1.25000000E+001 3.00000000E+001 0.00000000E+000
1.29380000E+001 2.85480000E+001 0.00000000E+000
1.25140000E+001 2.93350000E+001 0.00000000E+000
1.24510000E+001 2.95770000E+001 0.00000000E+000
1.25710000E+001 2.90940000E+001 0.00000000E+000
1.24070000E+001 2.98010000E+001 0.00000000E+000
1.30050000E+001 2.83110000E+001 0.00000000E+000
1.26380000E+001 2.88530000E+001 0.00000000E+000
1.26970000E+001 2.86120000E+001 0.00000000E+000
1.30700000E+001 2.80700000E+001 0.00000000E+000
1.22500000E+001 3.00000000E+001 0.00000000E+000
1.27630000E+001 2.83710000E+001 0.00000000E+000
1.23390000E+001 2.91600000E+001 0.00000000E+000
1.22730000E+001 2.94000000E+001 0.00000000E+000
1.23970000E+001 2.89180000E+001 0.00000000E+000
1.21840000E+001 2.97180000E+001 0.00000000E+000
1.24630000E+001 2.86770000E+001 0.00000000E+000
1.28290000E+001 2.81360000E+001 0.00000000E+000
1.25220000E+001 2.84360000E+001 0.00000000E+000
1.28950000E+001 2.78950000E+001 0.00000000E+000
1.20000000E+001 3.00000000E+001 0.00000000E+000
1.20980000E+001 2.92270000E+001 0.00000000E+000
1.25880000E+001 2.81950000E+001 0.00000000E+000
1.20330000E+001 2.94670000E+001 0.00000000E+000
1.21620000E+001 2.89850000E+001 0.00000000E+000
1.22230000E+001 2.87430000E+001 0.00000000E+000
1.22870000E+001 2.85020000E+001 0.00000000E+000
1.26540000E+001 2.79600000E+001 0.00000000E+000
1.18750000E+001 2.97830000E+001 0.00000000E+000
1.23470000E+001 2.82600000E+001 0.00000000E+000
1.18570000E+001 2.92910000E+001 0.00000000E+000
1.19200000E+001 2.90510000E+001 0.00000000E+000
1.27190000E+001 2.77190000E+001 0.00000000E+000
1.19830000E+001 2.88100000E+001 0.00000000E+000
1.17500000E+001 3.00000000E+001 0.00000000E+000
1.24120000E+001 2.80190000E+001 0.00000000E+000
1.17500000E+001 2.95670000E+001 0.00000000E+000
1.20490000E+001 2.85700000E+001 0.00000000E+000
1.21080000E+001 2.83280000E+001 0.00000000E+000
1.24780000E+001 2.77850000E+001 0.00000000E+000
1.16250000E+001 2.97830000E+001 0.00000000E+000
1.21750000E+001 2.80890000E+001 0.00000000E+000
1.18070000E+001 2.86330000E+001 0.00000000E+000
1.25440000E+001 2.75440000E+001 0.00000000E+000
1.17000000E+001 2.89070000E+001 0.00000000E+000
1.16270000E+001 2.91460000E+001 0.00000000E+000
1.22420000E+001 2.78510000E+001 0.00000000E+000
1.15000000E+001 3.00000000E+001 0.00000000E+000
1.15520000E+001 2.93850000E+001 0.00000000E+000
1.18700000E+001 2.83960000E+001 0.00000000E+000
1.15000000E+001 2.95670000E+001 0.00000000E+000
1.19360000E+001 2.81570000E+001 0.00000000E+000
1.23030000E+001 2.76090000E+001 0.00000000E+000
1.20010000E+001 2.79170000E+001 0.00000000E+000
1.15670000E+001 2.87020000E+001 0.00000000E+000
1.13260000E+001 2.97210000E+001 0.00000000E+000
1.14570000E+001 2.89640000E+001 0.00000000E+000
1.13840000E+001 2.92000000E+001 0.00000000E+000
1.16280000E+001 2.84600000E+001 0.00000000E+000
1.13210000E+001 2.94420000E+001 0.00000000E+000
1.23680000E+001 2.73680000E+001 0.00000000E+000
1.20640000E+001 2.76750000E+001 0.00000000E+000
1.12500000E+001 3.00000000E+001 0.00000000E+000
1.16940000E+001 2.82190000E+001 0.00000000E+000
1.17590000E+001 2.79820000E+001 0.00000000E+000
1.21280000E+001 2.74340000E+001 0.00000000E+000
1.18240000E+001 2.77400000E+001 0.00000000E+000
1.12160000E+001 2.90290000E+001 0.00000000E+000
1.12790000E+001 2.87880000E+001 0.00000000E+000
1.13540000E+001 2.85500000E+001 0.00000000E+000
1.11430000E+001 2.92670000E+001 0.00000000E+000
1.14530000E+001 2.82840000E+001 0.00000000E+000
1.10800000E+001 2.95060000E+001 0.00000000E+000
1.21930000E+001 2.71930000E+001 0.00000000E+000
1.18870000E+001 2.74990000E+001 0.00000000E+000
1.15180000E+001 2.80430000E+001 0.00000000E+000
1.10000000E+001 3.00000000E+001 0.00000000E+000
1.10080000E+001 2.97450000E+001 0.00000000E+000
1.15830000E+001 2.78050000E+001 0.00000000E+000
1.19520000E+001 2.72580000E+001 0.00000000E+000
1.10400000E+001 2.88560000E+001 0.00000000E+000
1.09750000E+001 2.90830000E+001 0.00000000E+000
1.11110000E+001 2.86080000E+001 0.00000000E+000
1.09120000E+001 2.93250000E+001 0.00000000E+000
1.16480000E+001 2.75640000E+001 0.00000000E+000
1.11780000E+001 2.83820000E+001 0.00000000E+000
1.12770000E+001 2.81090000E+001 0.00000000E+000
1.08370000E+001 2.95630000E+001 0.00000000E+000
1.20180000E+001 2.70180000E+001 0.00000000E+000
1.13410000E+001 2.78670000E+001 0.00000000E+000
1.17110000E+001 2.73220000E+001 0.00000000E+000
1.07590000E+001 2.98000000E+001 0.00000000E+000
1.07500000E+001 3.00000000E+001 0.00000000E+000
1.14070000E+001 2.76300000E+001 0.00000000E+000
1.08700000E+001 2.86730000E+001 0.00000000E+000
1.07960000E+001 2.89110000E+001 0.00000000E+000
1.17770000E+001 2.70830000E+001 0.00000000E+000
1.07350000E+001 2.91490000E+001 0.00000000E+000
1.09340000E+001 2.84320000E+001 0.00000000E+000
1.06720000E+001 2.93770000E+001 0.00000000E+000
1.10110000E+001 2.81960000E+001 0.00000000E+000
1.14710000E+001 2.73880000E+001 0.00000000E+000
1.11000000E+001 2.79320000E+001 0.00000000E+000
1.05930000E+001 2.96140000E+001 0.00000000E+000
1.18420000E+001 2.68420000E+001 0.00000000E+000
1.11650000E+001 2.76910000E+001 0.00000000E+000
1.15390000E+001 2.71490000E+001 0.00000000E+000
1.05000000E+001 3.00000000E+001 0.00000000E+000
1.05690000E+001 2.89670000E+001 0.00000000E+000
1.06300000E+001 2.87250000E+001 0.00000000E+000
1.12290000E+001 2.74490000E+001 0.00000000E+000
1.06940000E+001 2.85010000E+001 0.00000000E+000
1.04920000E+001 2.92040000E+001 0.00000000E+000
1.07690000E+001 2.82510000E+001 0.00000000E+000
1.16010000E+001 2.69070000E+001 0.00000000E+000
1.04320000E+001 2.94460000E+001 0.00000000E+000
1.08420000E+001 2.80120000E+001 0.00000000E+000
1.12970000E+001 2.72090000E+001 0.00000000E+000
1.09240000E+001 2.77550000E+001 0.00000000E+000
1.03460000E+001 2.97150000E+001 0.00000000E+000
1.16670000E+001 2.66670000E+001 0.00000000E+000
1.09890000E+001 2.75140000E+001 0.00000000E+000
1.13620000E+001 2.69740000E+001 0.00000000E+000
1.02500000E+001 3.00000000E+001 0.00000000E+000
1.03900000E+001 2.87930000E+001 0.00000000E+000
1.03250000E+001 2.90340000E+001 0.00000000E+000
1.04500000E+001 2.85520000E+001 0.00000000E+000
1.05270000E+001 2.83160000E+001 0.00000000E+000
1.10560000E+001 2.72750000E+001 0.00000000E+000
1.02540000E+001 2.92710000E+001 0.00000000E+000
1.05920000E+001 2.80750000E+001 0.00000000E+000
1.01880000E+001 2.94960000E+001 0.00000000E+000
1.06820000E+001 2.78170000E+001 0.00000000E+000
1.14260000E+001 2.67320000E+001 0.00000000E+000
1.11210000E+001 2.70340000E+001 0.00000000E+000
1.07500000E+001 2.75770000E+001 0.00000000E+000
1.01120000E+001 2.97340000E+001 0.00000000E+000
1.08140000E+001 2.73360000E+001 0.00000000E+000
1.14910000E+001 2.64910000E+001 0.00000000E+000
1.02150000E+001 2.86170000E+001 0.00000000E+000
1.11850000E+001 2.67970000E+001 0.00000000E+000
1.01490000E+001 2.88570000E+001 0.00000000E+000
1.02870000E+001 2.83640000E+001 0.00000000E+000
1.00000000E+001 3.00000000E+001 0.00000000E+000
1.03530000E+001 2.81440000E+001 0.00000000E+000
1.00140000E+001 2.93220000E+001 0.00000000E+000
1.08800000E+001 2.71000000E+001 0.00000000E+000
1.04120000E+001 2.79020000E+001 0.00000000E+000
9.94820000E+000 2.95630000E+001 0.00000000E+000
1.05110000E+001 2.76420000E+001 0.00000000E+000
1.00000000E+001 2.90740000E+001 0.00000000E+000
1.12500000E+001 2.65570000E+001 0.00000000E+000
[...]
POINT_DATA    13139
SCALARS Ux float
LOOKUP_TABLE default
1.00000000E+000
1.00000000E+000
1.01288566E+000
1.02711003E+000
1.00000000E+000
1.04659879E+000
1.05527949E+000
1.00000000E+000
1.09888466E+000
1.06612174E+000
1.12704802E+000
1.00000000E+000
1.16538256E+000
1.06128445E+000
1.13754246E+000
1.20034649E+000
1.00000000E+000
1.24721194E+000
1.21939337E+000
1.10958094E+000
1.28837572E+000
1.00000000E+000
1.34283806E+000
1.21945383E+000
1.31483672E+000
1.10875254E+000
1.38998076E+000
1.00000000E+000
1.31423382E+000
1.45164616E+000
1.22629737E+000
1.42353564E+000
1.12212035E+000
1.50516591E+000
1.42487625E+000
1.34754485E+000
1.00000000E+000
1.57290148E+000
1.25332998E+000
1.54754567E+000
1.13509124E+000
1.63203165E+000
1.48386464E+000
1.38922505E+000
1.00000000E+000
1.70591359E+000
1.27866479E+000
1.70238216E+000
1.62762998E+000
1.14774217E+000
1.77021996E+000
1.53822277E+000
1.43039922E+000
1.00000000E+000
1.85006790E+000
1.30272764E+000
1.78094183E+000
1.85480565E+000
1.69448022E+000
1.90129816E+000
1.15995538E+000
1.58591577E+000
1.46601988E+000
1.00000000E+000
2.00615410E+000
1.32578014E+000
1.85375082E+000
1.94308992E+000
1.75367011E+000
2.03850193E+000
1.63307154E+000
1.17242191E+000
1.50099894E+000
1.00000000E+000
2.17316813E+000
2.02664748E+000
1.34858626E+000
2.11237908E+000
1.92582554E+000
1.81154709E+000
1.68008390E+000
1.18349912E+000
2.25337139E+000
1.53508014E+000
2.20678657E+000
2.10985887E+000
1.00000000E+000
1.99763148E+000
2.34901325E+000
1.37144179E+000
2.32439652E+000
1.86885998E+000
1.72865794E+000
1.19549665E+000
2.43447388E+000
1.56878567E+000
2.06590680E+000
1.00000000E+000
2.23192647E+000
2.34617367E+000
1.39421466E+000
2.53572854E+000
2.44716048E+000
1.92825019E+000
2.51116457E+000
1.77297074E+000
1.20602926E+000
1.60283817E+000
2.27018745E+000
2.66084860E+000
2.43321742E+000
2.54476418E+000
2.13581797E+000
2.63593780E+000
1.00000000E+000
1.41771297E+000
2.73155480E+000
1.98319394E+000
1.81829825E+000
1.21695085E+000
1.63583361E+000
2.64202547E+000
2.52529719E+000
2.38605997E+000
2.75192297E+000
2.20085517E+000
2.83995770E+000
1.00000000E+000
1.44019371E+000
2.03761821E+000
2.93609361E+000
2.92139923E+000
1.86109664E+000
1.22775377E+000
2.74333801E+000
2.85541759E+000
2.60657267E+000
2.95592588E+000
1.66809504E+000
2.46679780E+000
2.26597813E+000
3.05213695E+000
1.00000000E+000
2.09195242E+000
1.46092651E+000
3.13711655E+000
3.14991526E+000
1.90431627E+000
2.83478729E+000
2.96869147E+000
1.23832990E+000
3.07754460E+000
2.69475822E+000
3.17346506E+000
2.53132074E+000
1.70070517E+000
2.32989888E+000
3.27277322E+000
1.00000000E+000
2.14468587E+000
1.48083432E+000
3.37486290E+000
3.18576814E+000
3.06449627E+000
1.94498917E+000
2.93303794E+000
3.30692280E+000
2.76880234E+000
1.24882344E+000
3.40030652E+000
2.59614875E+000
1.72829359E+000
2.39206707E+000
3.50564453E+000
1.00000000E+000
2.19608898E+000
1.50321925E+000
3.60512198E+000
3.30547174E+000
3.42683857E+000
3.17490944E+000
3.01668801E+000
1.98506031E+000
3.54024705E+000
2.85405308E+000
3.63442895E+000
2.64507590E+000
1.25914992E+000
1.75989986E+000
2.45087726E+000
3.72806858E+000
2.24526133E+000
1.00000000E+000
3.41930980E+000
1.52396589E+000
3.55242756E+000
3.26222988E+000
3.84428118E+000
3.11008381E+000
3.77868759E+000
2.02673111E+000
2.94253485E+000
3.87350352E+000
2.71253587E+000
3.74763878E+000
1.27027493E+000
3.96321332E+000
1.79220181E+000
2.51233665E+000
3.52125696E+000
3.77581325E+000
3.67381883E+000
2.29445380E+000
1.00000000E+000
3.36962715E+000
3.18535459E+000
1.54362313E+000
4.09130730E+000
4.02441415E+000
3.00795955E+000
2.06834454E+000
4.12068138E+000
2.78582079E+000
1.27959081E+000
2.57320676E+000
4.21014233E+000
1.82363029E+000
4.01076968E+000
3.77819388E+000
4.12894469E+000
3.63672637E+000
3.93483965E+000
3.45306263E+000
4.22302582E+000
2.34724251E+000
3.26216465E+000
1.00000000E+000
1.56128039E+000
3.06166461E+000
4.34610348E+000
2.10355961E+000
4.36183085E+000
2.85536812E+000
1.28969788E+000
4.46006284E+000
2.63443468E+000
4.04826060E+000
4.18045408E+000
1.84850316E+000
4.29265125E+000
3.72985691E+000
3.90735932E+000
3.55843708E+000
3.34662941E+000
2.39421471E+000
4.47429418E+000
1.00000000E+000
1.57765689E+000
3.14386460E+000
4.60831676E+000
2.14387455E+000
2.92636612E+000
4.52890159E+000
4.66684691E+000
1.29982157E+000
4.32357512E+000
4.18046541E+000
4.00001132E+000
2.69162698E+000
3.84379669E+000
3.64234606E+000
1.87771823E+000
4.51904246E+000
3.43491079E+000
2.44666425E+000
4.72755018E+000
1.00000000E+000
3.22441593E+000
1.59958915E+000
4.83181517E+000
4.87757867E+000
2.18535265E+000
2.99179843E+000
4.28726558E+000
4.60454451E+000
4.80005749E+000
4.46158635E+000
4.12714864E+000
3.93172272E+000
1.30990491E+000
2.75188875E+000
3.73272374E+000
1.91132923E+000
5.00900627E+000
3.51987524E+000
4.97100849E+000
2.49696251E+000
1.00000000E+000
3.29905096E+000
4.89446283E+000
1.62063368E+000
5.15236732E+000
4.83115329E+000
4.56462388E+000
5.13331928E+000
2.22746923E+000
4.42120350E+000
3.06121512E+000
4.22401822E+000
4.74748428E+000
4.03414503E+000
5.07704256E+000
1.32008413E+000
3.82626181E+000
2.81162778E+000
1.94158563E+000
5.28764893E+000
3.60863841E+000
5.25043795E+000
2.54850208E+000
3.37808842E+000
1.00000000E+000
4.99663728E+000
1.63974326E+000
4.85969732E+000
5.13363288E+000
4.52419765E+000
4.71203043E+000
5.43385120E+000
4.34138116E+000
5.26465250E+000
3.13066495E+000
2.26729113E+000
5.41572187E+000
4.14599575E+000
3.92563793E+000
1.33026434E+000
2.86572602E+000
1.97099963E+000
3.69654585E+000
5.57233968E+000
2.59608654E+000
3.44944620E+000
5.00957100E+000
5.15821302E+000
5.28794160E+000
4.83229831E+000
1.00000000E+000
5.42652864E+000
4.65166031E+000
1.65962016E+000
5.60381457E+000
4.44776295E+000
5.72130401E+000
3.19816392E+000
5.56698175E+000
2.30724286E+000
5.70346828E+000
4.24330227E+000
4.00980590E+000
1.34167226E+000
2.92836559E+000
2.00097235E+000
3.77638819E+000
5.86275301E+000
5.14369343E+000
5.46036351E+000
5.31671397E+000
5.57935328E+000
4.96487152E+000
2.64891578E+000
5.84447448E+000
3.53509400E+000
4.76805059E+000
5.72397283E+000
5.80993058E+000
1.00000000E+000
4.56512688E+000
1.68051506E+000
4.34035457E+000
3.27039640E+000
6.01433147E+000
2.34854187E+000
5.99718440E+000
4.11282931E+000
2.99252811E+000
1.35116971E+000
5.59974309E+000
3.86917603E+000
2.03231912E+000
5.26895653E+000
5.45634144E+000
5.87884917E+000
5.76636013E+000
6.15859717E+000
5.09040379E+000
6.00710286E+000
6.10222515E+000
2.69961374E+000
4.89235707E+000
3.61590047E+000
4.67051270E+000
1.00000000E+000
1.70063584E+000
4.45258041E+000
3.34414238E+000
6.31253122E+000
2.38844593E+000
6.29612521E+000
4.21484424E+000
5.73997449E+000
3.05659475E+000
6.04131969E+000
5.91207468E+000
1.36218523E+000
5.58991773E+000
5.41529718E+000
3.96209224E+000
6.18378517E+000
5.21972248E+000
2.06309979E+000
6.29479779E+000
5.00755903E+000
6.45936124E+000
3.68946815E+000
6.42651024E+000
2.75200741E+000
4.79447137E+000
1.00000000E+000
1.72219478E+000
4.56412787E+000
3.40581712E+000
2.43204485E+000
6.61548867E+000
6.59944014E+000
6.06004515E+000
4.31739696E+000
5.90919398E+000
6.22063106E+000
5.73190974E+000
6.35281424E+000
5.55419181E+000
3.11015262E+000
6.48705660E+000
1.37244030E+000
5.34450140E+000
4.05049616E+000
6.59864940E+000
2.09556629E+000
5.14093314E+000
6.76468605E+000
3.77135209E+000
4.91624743E+000
2.80435537E+000
6.73307722E+000
1.00000000E+000
4.67417073E+000
1.74321999E+000
6.20783141E+000
3.48202073E+000
6.38199908E+000
6.06263352E+000
2.47449808E+000
6.92285821E+000
4.41471291E+000
6.54039360E+000
5.88788959E+000
6.90735804E+000
6.66768831E+000
5.68825279E+000
6.86090425E+000
6.79910133E+000
3.18279781E+000
5.49011358E+000
4.14370333E+000
1.38397770E+000
5.26298559E+000
2.12768364E+000
7.07430885E+000
3.86184207E+000
5.03486697E+000
2.86029212E+000
7.04393619E+000
4.78007339E+000
1.00000000E+000
6.53793248E+000
6.39756508E+000
1.76578814E+000
6.70835296E+000
6.22442450E+000
3.56459558E+000
6.03201792E+000
4.51728362E+000
2.51897931E+000
7.23422561E+000
5.84271973E+000
7.12359488E+000
6.91960485E+000
7.03437435E+000
5.62203251E+000
7.24282069E+000
3.24648561E+000
4.24348260E+000
1.39441193E+000
5.39698154E+000
2.16184375E+000
5.15130433E+000
7.38768312E+000
3.95033979E+000
2.91494230E+000
6.72870064E+000
6.89626408E+000
4.89656650E+000
6.56717121E+000
6.37982443E+000
1.00000000E+000
7.06871010E+000
6.17802491E+000
1.78785764E+000
3.64199454E+000
7.42749744E+000
4.62652418E+000
5.98393653E+000
7.23354931E+000
2.56403708E+000
7.54906992E+000
7.42412049E+000
5.76382391E+000
7.38329842E+000
4.33765618E+000
3.31796190E+000
5.52218952E+000
1.40680246E+000
7.60658450E+000
2.19730194E+000
5.27661513E+000
7.70417621E+000
7.06703308E+000
6.90657329E+000
6.72443824E+000
7.22977974E+000
2.96759773E+000
4.05269324E+000
6.53441628E+000
5.01238137E+000
7.39702979E+000
6.34679840E+000
1.00000000E+000
1.81216283E+000
3.71419851E+000
6.13110638E+000
4.72562103E+000
7.64682372E+000
7.57333803E+000
7.73508850E+000
2.61058849E+000
5.89891729E+000
7.86703611E+000
7.82796993E+000
7.86239536E+000
5.65680589E+000
3.38194783E+000
4.41559169E+000
1.41826404E+000
7.22277582E+000
5.39424381E+000
2.23279972E+000
7.40314476E+000
7.07412030E+000
7.54000972E+000
6.88980889E+000
8.02379359E+000
6.71151734E+000
4.11367254E+000
3.02659971E+000
5.12323416E+000
7.81664548E+000
7.72763055E+000
6.50168864E+000
7.93010789E+000
1.00000000E+000
6.27619479E+000
3.76128664E+000
1.83605237E+000
8.03799485E+000
4.81203771E+000
6.04276053E+000
2.64993698E+000
8.13760777E+000
8.18777037E+000
5.78806941E+000
3.45239472E+000
4.52283265E+000
7.41855685E+000
7.56733969E+000
7.24652700E+000
1.43175558E+000
7.87369062E+000
7.74395972E+000
5.52459372E+000
7.07025111E+000
2.27103352E+000
8.00506350E+000
4.18908128E+000
6.87048688E+000
8.14138603E+000
8.34596151E+000
5.24428712E+000
3.08060552E+000
6.65530642E+000
8.25090202E+000
6.42773146E+000
1.00000000E+000
8.34554436E+000
3.86287146E+000
1.86240559E+000
4.93795718E+000
6.18205512E+000
2.70222276E+000
8.51064349E+000
8.49869075E+000
7.90946143E+000
4.61967218E+000
7.75998117E+000
7.60254087E+000
7.42118856E+000
6.01842244E+000
8.07450720E+000
3.51539180E+000
8.20758212E+000
7.23993244E+000
1.44579070E+000
8.33165945E+000
5.72838651E+000
7.03683514E+000
2.31007368E+000
8.44676130E+000
6.82072802E+000
4.29533601E+000
6.57250747E+000
8.66978800E+000
3.13088412E+000
5.35776987E+000
8.57464702E+000
8.66045805E+000
1.00000000E+000
3.95965509E+000
5.04294662E+000
1.88894107E+000
2.76604287E+000
8.10886671E+000
6.41818339E+000
7.95349487E+000
7.78490164E+000
8.25360895E+000
8.38732002E+000
8.83516247E+000
4.70596424E+000
7.61100857E+000
8.82374119E+000
6.13638796E+000
3.58871522E+000
8.54332612E+000
7.42298508E+000
8.66104509E+000
5.83862796E+000
7.20413039E+000
1.45912899E+000
6.96568953E+000
2.35556792E+000
8.78681262E+000
4.40872169E+000
6.72187653E+000
8.89007888E+000
5.47423220E+000
3.20900579E+000
8.94887905E+000
8.99520833E+000
4.05180759E+000
1.00000000E+000
5.14495911E+000
1.92628187E+000
8.30845760E+000
8.45120165E+000
7.94909706E+000
8.14228006E+000
8.59564213E+000
8.71709984E+000
6.54657258E+000
2.82140343E+000
7.77250446E+000
8.86872971E+000
6.25809544E+000
9.16091245E+000
7.58934287E+000
4.86260560E+000
3.68061230E+000
7.35593718E+000
8.99060617E+000
5.95739756E+000
7.12618082E+000
1.47499029E+000
9.11442998E+000
9.21354884E+000
2.40249264E+000
4.51173652E+000
5.61683765E+000
9.21321263E+000
3.28733359E+000
9.35106668E+000
8.48668455E+000
8.79693735E+000
6.95456749E+000
8.65688792E+000
8.31691033E+000
4.15502277E+000
8.93373703E+000
8.12301126E+000
5.31267804E+000
1.00000000E+000
1.95904311E+000
9.05610927E+000
7.93478380E+000
6.67754132E+000
2.86081329E+000
7.74816649E+000
9.20472281E+000
6.38999158E+000
9.30852913E+000
9.48714956E+000
4.98106180E+000
3.77112960E+000
6.06597352E+000
9.44281604E+000
1.49022803E+000
2.45369593E+000
9.53174321E+000
4.62448633E+000
5.76697001E+000
9.59032391E+000
3.36387112E+000
7.66899705E+000
7.39165998E+000
8.84780405E+000
8.68434190E+000
9.64812184E+000
9.00949512E+000
8.50892357E+000
7.09966565E+000
8.31830847E+000
9.38836176E+000
4.25941591E+000
5.45260781E+000
9.30886507E+000
1.00000000E+000
9.21582310E+000
6.82122729E+000
1.99116840E+000
8.16066162E+000
9.52664275E+000
2.95011046E+000
6.52311476E+000
9.63483549E+000
5.10865016E+000
9.81364707E+000
3.85873670E+000
6.22414843E+000
9.75848204E+000
1.50826843E+000
9.85013828E+000
2.50048457E+000
4.74692936E+000
5.92482963E+000
7.79914020E+000
8.87289397E+000
8.69906359E+000
7.51987533E+000
8.07527117E+000
3.47117823E+000
9.61704940E+000
9.08583626E+000
7.23361352E+000
9.96718152E+000
8.52624087E+000
9.96639114E+000
9.72464869E+000
5.59391981E+000
6.95078053E+000
9.31617898E+000
9.83056941E+000
4.35248955E+000
8.34994111E+000
1.00000000E+000
9.48548807E+000
2.03874883E+000
3.01977056E+000
6.70600099E+000
9.65613497E+000
9.96279859E+000
5.24352977E+000
1.00584614E+001
6.37934402E+000
3.97929863E+000
1.01399720E+001
7.59677242E+000
1.52574875E+000
1.01713146E+001
4.87163918E+000
9.24496418E+000
7.95131422E+000
2.58228908E+000
8.91385981E+000
6.08022912E+000
7.37675145E+000
9.93951016E+000
9.10489658E+000
3.54609597E+000
8.64833401E+000
1.02640164E+001
8.35460722E+000
1.00539560E+001
9.53542516E+000
7.16259423E+000
5.74274793E+000
1.01625546E+001
4.49311948E+000
1.00000000E+000
1.02594057E+001
2.08131709E+000
6.86674681E+000
9.77414385E+000
3.08017516E+000
9.92884878E+000
5.38336159E+000
1.00619261E+001
1.03808580E+001
8.01315123E+000
6.54392326E+000
4.07288074E+000
1.04654869E+001
7.82149181E+000
1.04926617E+001
9.04413427E+000
1.54700152E+000
4.99422428E+000
9.29020605E+000
2.62980891E+000
9.48277841E+000
6.24614075E+000
1.02737196E+001
8.85758731E+000
7.61548984E+000
9.71582706E+000
3.62645302E+000
1.03801997E+001
8.40979008E+000
7.30986694E+000
1.06265862E+001
1.05016392E+001
4.59653489E+000
5.89953996E+000
8.73679701E+000
9.97991625E+000
1.01220054E+001
1.05852201E+001
1.00000000E+000
7.00972901E+000
2.10754943E+000
1.02712247E+001
3.20449200E+000
8.26064053E+000
1.04006144E+001
5.52895199E+000
6.74299422E+000
1.07038039E+001
7.99552467E+000
4.18672108E+000
1.07893251E+001
9.27071419E+000
9.67279402E+000
9.48424342E+000
9.85524001E+000
1.08131156E+001
2.69575824E+000
1.57053068E+000
1.06014653E+001
5.14211147E+000
6.39754052E+000
7.77762783E+000
1.07033120E+001
9.11384851E+000
1.01097825E+001
3.76391922E+000
8.88938756E+000
7.47552945E+000
1.09242477E+001
1.03344821E+001
1.08813350E+001
6.06657949E+000
8.68585606E+000
1.04691859E+001
4.75987755E+000
7.24036642E+000
8.43817487E+000
1.09548289E+001
1.06139408E+001
1.00000000E+000
2.15735185E+000
1.09087147E+001
1.07320647E+001
3.27802230E+000
5.69151650E+000
6.91875337E+000
8.22938528E+000
9.43633187E+000
9.85372891E+000
4.33474498E+000
9.66512234E+000
1.00518097E+001
1.11113172E+001
7.95842063E+000
1.09279394E+001
1.02775932E+001
2.74650238E+000
5.32452247E+000
6.60077588E+000
9.30704327E+000
1.59479940E+000
9.07148660E+000
1.05284261E+001
1.11881868E+001
1.11433207E+001
3.85911087E+000
1.06819153E+001
7.73503725E+000
8.88086412E+000
1.12482823E+001
1.08083497E+001
6.25058618E+000
4.90394236E+000
1.09473075E+001
7.41462616E+000
8.67940631E+000
1.12594552E+001
1.00000000E+000
2.20912888E+000
3.35556139E+000
9.83693682E+000
8.43432300E+000
9.62134716E+000
1.12097778E+001
1.00518679E+001
1.02383017E+001
5.88732293E+000
1.11127936E+001
7.11696058E+000
1.04240649E+001
4.46696415E+000
8.18927545E+000
1.14309150E+001
1.13369211E+001
1.06779182E+001
9.49962411E+000
6.80347890E+000
5.47775356E+000
1.62398435E+000
9.31873040E+000
1.08824884E+001
2.84116906E+000
7.92682334E+000
1.10279181E+001
1.14611318E+001
3.98316013E+000
1.11459887E+001
9.12021836E+000
6.43814056E+000
1.15332948E+001
1.13829091E+001
9.97887323E+000
1.15682787E+001
1.12822067E+001
5.04875348E+000
8.90254912E+000
7.65065074E+000
1.02346815E+001
1.00000000E+000
1.13929636E+001
2.26439553E+000
9.89775814E+000
3.45183411E+000
8.67588427E+000
6.07809048E+000
1.15618929E+001
1.04685188E+001
7.35434488E+000
9.72495178E+000
4.60735515E+000
1.06842789E+001
1.16486189E+001
8.43221944E+000
1.17476147E+001
1.10781098E+001
1.12203529E+001
1.09088388E+001
7.00697727E+000
9.56791776E+000
5.67076159E+000
1.65532806E+000
1.13635234E+001
1.17650850E+001
8.17741440E+000
2.93195613E+000
1.14742177E+001
9.35957268E+000
4.10906061E+000
1.18356104E+001
6.67344104E+000
1.02980578E+001
9.15667177E+000
1.16229509E+001
5.25827945E+000
7.89508468E+000
1.17071130E+001
1.17843878E+001
1.01470266E+001
1.00000000E+000
1.19431582E+001
2.33131020E+000
1.18632450E+001
8.92971538E+000
6.29708942E+000
7.57750559E+000
3.61646741E+000
9.99400651E+000
1.13067430E+001
1.19546823E+001
8.66778333E+000
1.06932550E+001
4.78096496E+000
1.09164815E+001
1.14522876E+001
1.12099893E+001
1.15638234E+001
9.80514436E+000
1.10842559E+001
1.20606116E+001
1.20235219E+001
7.25550967E+000
1.16990689E+001
5.90315491E+000
1.18003738E+001
1.69337929E+000
8.41414243E+000
9.62862710E+000
3.03776258E+000
1.21415163E+001
4.31903910E+000
1.19382380E+001
6.91719034E+000
9.41476476E+000
1.20186675E+001
1.06430328E+001
8.13789389E+000
1.22072441E+001
5.46004191E+000
1.20900493E+001
1.04242655E+001
9.17722934E+000
1.16347223E+001
1.00000000E+000
2.40667948E+000
1.21987538E+001
6.55589331E+000
7.84429170E+000
1.02491627E+001
1.15590554E+001
1.14366812E+001
1.22465147E+001
3.76751752E+000
1.18850464E+001
1.17914496E+001
8.93802162E+000
1.13435462E+001
1.00867240E+001
5.03427682E+000
1.20190545E+001
1.23318555E+001
1.12158969E+001
1.23696008E+001
7.52514612E+000
1.21140259E+001
6.14369526E+000
1.23899570E+001
1.21948047E+001
1.73561526E+000
8.69088406E+000
1.11072002E+001
9.89567397E+000
1.22801210E+001
3.16100768E+000
1.08354540E+001
7.16469633E+000
4.51150084E+000
9.67549884E+000
8.41512051E+000
1.23982019E+001
1.19590940E+001
1.10399360E+001
5.68726078E+000
1.06782970E+001
1.18638043E+001
1.25362296E+001
9.45787756E+000
1.24777610E+001
1.17906913E+001
1.00000000E+000
1.21215278E+001
1.16809857E+001
2.49802289E+000
6.78584597E+000
1.05305026E+001
1.25398959E+001
8.13254101E+000
1.22156657E+001
3.93882641E+000
1.15893585E+001
1.25954837E+001
9.23034466E+000
1.03521364E+001
1.23412980E+001
1.14721191E+001
5.26561992E+000
1.24241499E+001
7.79571531E+000
1.01435575E+001
1.26741245E+001
1.25008161E+001
1.26806997E+001
6.40114620E+000
1.13675923E+001
8.98106481E+000
1.25773242E+001
1.78880982E+000
3.30693454E+000
1.12419086E+001
1.11018810E+001
7.45537171E+000
4.72440192E+000
1.26897211E+001
1.22998301E+001
8.72030487E+000
1.27505738E+001
5.94827437E+000
1.24302172E+001
9.75967421E+000
1.21542861E+001
1.22640671E+001
1.00000000E+000
1.08079436E+001
1.25388547E+001
1.28321172E+001
8.42092760E+000
7.10999981E+000
2.60843705E+000
1.01863169E+001
1.28852295E+001
1.20773899E+001
1.19542163E+001
4.14092419E+000
1.26515039E+001
9.53462484E+000
1.27296171E+001
1.29163457E+001
1.11561187E+001
1.18390346E+001
1.05939604E+001
1.28002180E+001
5.52446285E+000
8.11301104E+000
1.29735825E+001
6.69499822E+000
9.30047175E+000
1.28907047E+001
1.14858039E+001
1.85122782E+000
1.17226643E+001
3.48315393E+000
1.29734576E+001
7.79759194E+000
1.02386641E+001
4.99332838E+000
1.26489177E+001
9.03262676E+000
1.30552226E+001
1.25609835E+001
1.27516336E+001
1.12094219E+001
1.24973635E+001
1.23932524E+001
1.28535758E+001
1.00319628E+001
1.29279196E+001
1.23161779E+001
6.38687197E+000
1.00000000E+000
8.74887785E+000
1.22008877E+001
7.43346091E+000
1.10612295E+001
1.31445956E+001
2.74695222E+000
1.30033719E+001
4.38830520E+000
1.08533390E+001
1.31937474E+001
1.21260634E+001
9.82158767E+000
1.30975508E+001
1.32306578E+001
8.42548140E+000
1.31690917E+001
7.01257295E+000
5.88632622E+000
1.19037685E+001
1.32673157E+001
1.07158672E+001
9.62660353E+000
1.17742004E+001
1.20966480E+001
1.93327542E+000
1.32602853E+001
3.70317724E+000
1.16223271E+001
1.28711022E+001
1.32926498E+001
8.12278417E+000
1.05492951E+001
1.29773928E+001
5.30414785E+000
9.37281212E+000
1.30631714E+001
1.27290888E+001
1.28322490E+001
1.14856621E+001
1.33624928E+001
1.26567834E+001