# vtk DataFile Version 1.0
ECM-CELL DIFFUSION-MECHANICS
ASCII

DATASET UNSTRUCTURED_GRID
POINTS      250 float
1.50000000E+001 3.00000000E+001 0.00000000E+000
1.30000000E+001 3.00000000E+001 0.00000000E+000
1.35710000E+001 2.85710000E+001 0.00000000E+000
1.10000000E+001 3.00000000E+001 0.00000000E+000
1.21430000E+001 2.71430000E+001 0.00000000E+000
1.00000000E+001 2.82680000E+001 0.00000000E+000
9.00000000E+000 3.00000000E+001 0.00000000E+000
1.07140000E+001 2.57140000E+001 0.00000000E+000
8.33460000E+000 2.83710000E+001 0.00000000E+000
9.00000000E+000 2.65360000E+001 0.00000000E+000
7.00000000E+000 3.00000000E+001 0.00000000E+000
9.28570000E+000 2.42860000E+001 0.00000000E+000
6.67280000E+000 2.70530000E+001 0.00000000E+000
6.77880000E+000 2.50540000E+001 0.00000000E+000
5.00000000E+000 3.00000000E+001 0.00000000E+000
7.85710000E+000 2.28570000E+001 0.00000000E+000
4.98060000E+000 2.83140000E+001 0.00000000E+000
4.99670000E+000 2.59620000E+001 0.00000000E+000
5.51920000E+000 2.37580000E+001 0.00000000E+000
3.00000000E+000 3.00000000E+001 0.00000000E+000
6.42860000E+000 2.14290000E+001 0.00000000E+000
3.21410000E+000 2.68670000E+001 0.00000000E+000
3.32000000E+000 2.48730000E+001 0.00000000E+000
3.73370000E+000 2.23710000E+001 0.00000000E+000
1.30180000E+000 2.77520000E+001 0.00000000E+000
1.00000000E+000 3.00000000E+001 0.00000000E+000
1.54580000E+000 2.57700000E+001 0.00000000E+000
5.00000000E+000 2.00000000E+001 0.00000000E+000
1.63350000E+000 2.38210000E+001 0.00000000E+000
3.01190000E+000 2.06780000E+001 0.00000000E+000
-1.62660000E-001 2.85160000E+001 0.00000000E+000
5.00000000E+000 1.80000000E+001 0.00000000E+000
1.64040000E+000 2.18300000E+001 0.00000000E+000
-2.86270000E-001 2.65410000E+001 0.00000000E+000
4.06420000E-003 2.45740000E+001 0.00000000E+000
-1.00000000E+000 3.00000000E+001 0.00000000E+000
3.39280000E+000 1.88640000E+001 0.00000000E+000
1.68240000E+000 1.98910000E+001 0.00000000E+000
-1.86220000E-001 2.26080000E+001 0.00000000E+000
5.00000000E+000 1.60000000E+001 0.00000000E+000
-1.66170000E+000 2.56700000E+001 0.00000000E+000
-2.08720000E+000 2.78760000E+001 0.00000000E+000
3.29410000E+000 1.68880000E+001 0.00000000E+000
1.05170000E-001 2.06440000E+001 0.00000000E+000
-1.75690000E+000 2.36790000E+001 0.00000000E+000
-3.00000000E+000 3.00000000E+001 0.00000000E+000
1.66700000E+000 1.78960000E+001 0.00000000E+000
-1.52380000E+000 2.17920000E+001 0.00000000E+000
3.66030000E+000 1.50000000E+001 0.00000000E+000
-3.49950000E+000 2.64040000E+001 0.00000000E+000
5.00000000E+000 1.40000000E+001 0.00000000E+000
-1.62270000E-001 1.86910000E+001 0.00000000E+000
1.92820000E+000 1.60000000E+001 0.00000000E+000
-3.57130000E+000 2.45060000E+001 0.00000000E+000
-1.67830000E+000 1.98050000E+001 0.00000000E+000
-3.35940000E+000 2.25230000E+001 0.00000000E+000
8.17720000E-002 1.67120000E+001 0.00000000E+000
-5.00000000E+000 3.00000000E+001 0.00000000E+000
-5.00000000E+000 2.80000000E+001 0.00000000E+000
-1.42460000E+000 1.79410000E+001 0.00000000E+000
-5.00000000E+000 2.60000000E+001 0.00000000E+000
3.66030000E+000 1.30000000E+001 0.00000000E+000
5.00000000E+000 1.20000000E+001 0.00000000E+000
1.92820000E+000 1.40000000E+001 0.00000000E+000
-3.49740000E+000 2.06190000E+001 0.00000000E+000
-5.00000000E+000 2.40000000E+001 0.00000000E+000
1.96150000E-001 1.50000000E+001 0.00000000E+000
-3.26770000E+000 1.86400000E+001 0.00000000E+000
-5.00000000E+000 2.20000000E+001 0.00000000E+000
-1.53590000E+000 1.60000000E+001 0.00000000E+000
3.29410000E+000 1.11120000E+001 0.00000000E+000
1.92820000E+000 1.20000000E+001 0.00000000E+000
5.00000000E+000 1.00000000E+001 0.00000000E+000
-5.00000000E+000 2.00000000E+001 0.00000000E+000
-3.26790000E+000 1.70000000E+001 0.00000000E+000
1.96150000E-001 1.30000000E+001 0.00000000E+000
-1.53590000E+000 1.40000000E+001 0.00000000E+000
-5.00000000E+000 1.80000000E+001 0.00000000E+000
-3.26790000E+000 1.50000000E+001 0.00000000E+000
3.39280000E+000 9.13560000E+000 0.00000000E+000
1.66700000E+000 1.01040000E+001 0.00000000E+000
1.96150000E-001 1.10000000E+001 0.00000000E+000
5.00000000E+000 8.00000000E+000 0.00000000E+000
-5.00000000E+000 1.60000000E+001 0.00000000E+000
-1.53590000E+000 1.20000000E+001 0.00000000E+000
-3.26790000E+000 1.30000000E+001 0.00000000E+000
1.97120000E+000 8.16660000E+000 0.00000000E+000
3.65760000E+000 7.21990000E+000 0.00000000E+000
-5.00000000E+000 1.40000000E+001 0.00000000E+000
1.96150000E-001 9.00000000E+000 0.00000000E+000
-1.53590000E+000 1.00000000E+001 0.00000000E+000
5.00000000E+000 6.00000000E+000 0.00000000E+000
-3.26790000E+000 1.10000000E+001 0.00000000E+000
-5.00000000E+000 1.20000000E+001 0.00000000E+000
1.96650000E+000 6.18290000E+000 0.00000000E+000
1.96150000E-001 7.00000000E+000 0.00000000E+000
3.16390000E+000 5.32810000E+000 0.00000000E+000
-1.53590000E+000 8.00000000E+000 0.00000000E+000
-3.26790000E+000 9.00000000E+000 0.00000000E+000
5.00000000E+000 4.00000000E+000 0.00000000E+000
-5.00000000E+000 1.00000000E+001 0.00000000E+000
-1.64130000E-001 5.36050000E+000 0.00000000E+000
1.55890000E+000 4.34580000E+000 0.00000000E+000
3.26550000E+000 3.35960000E+000 0.00000000E+000
-1.53590000E+000 6.00000000E+000 0.00000000E+000
-3.26790000E+000 7.00000000E+000 0.00000000E+000
-5.00000000E+000 8.00000000E+000 0.00000000E+000
5.00000000E+000 2.00000000E+000 0.00000000E+000
-1.79790000E-001 3.36100000E+000 0.00000000E+000
-1.58190000E+000 4.11040000E+000 0.00000000E+000
1.54560000E+000 2.35300000E+000 0.00000000E+000
-3.29040000E+000 5.09730000E+000 0.00000000E+000
3.28040000E+000 1.36140000E+000 0.00000000E+000
-5.00000000E+000 6.00000000E+000 0.00000000E+000
5.00000000E+000 1.77640000E-015 0.00000000E+000
-1.90780000E-001 1.36140000E+000 0.00000000E+000
-1.69730000E+000 2.20820000E+000 0.00000000E+000
-3.36850000E+000 3.26420000E+000 0.00000000E+000
1.55350000E+000 3.53500000E-001 0.00000000E+000
3.34310000E+000 -5.18540000E-001 0.00000000E+000
-5.00000000E+000 4.00000000E+000 0.00000000E+000
5.00000000E+000 -2.00000000E+000 0.00000000E+000
-1.94220000E-002 -6.15240000E-001 0.00000000E+000
-3.47490000E+000 1.32680000E+000 0.00000000E+000
-1.79270000E+000 2.74870000E-001 0.00000000E+000
1.67530000E+000 -1.60560000E+000 0.00000000E+000
-5.00000000E+000 2.00000000E+000 0.00000000E+000
3.45500000E+000 -2.51310000E+000 0.00000000E+000
5.00000000E+000 -4.00000000E+000 0.00000000E+000
-1.68310000E+000 -1.71820000E+000 0.00000000E+000
-3.55210000E+000 -6.67730000E-001 0.00000000E+000
-4.59510000E-002 -2.60590000E+000 0.00000000E+000
-5.00000000E+000 0.00000000E+000 0.00000000E+000
1.68490000E+000 -3.60330000E+000 0.00000000E+000
3.46880000E+000 -4.49200000E+000 0.00000000E+000
-7.09430000E+000 0.00000000E+000 0.00000000E+000
-3.25050000E+000 -2.51340000E+000 0.00000000E+000
5.00000000E+000 -6.00000000E+000 0.00000000E+000
-1.76770000E+000 -3.60690000E+000 0.00000000E+000
8.21130000E-002 -4.59340000E+000 0.00000000E+000
1.79380000E+000 -5.57190000E+000 0.00000000E+000
-5.30340000E+000 -2.22580000E+000 0.00000000E+000
3.56980000E+000 -6.48770000E+000 0.00000000E+000
-9.18850000E+000 0.00000000E+000 0.00000000E+000
-7.42780000E+000 -1.97660000E+000 0.00000000E+000
-3.94620000E+000 -4.34830000E+000 0.00000000E+000
5.00000000E+000 -8.00000000E+000 0.00000000E+000
-1.59430000E+000 -5.68020000E+000 0.00000000E+000
7.83180000E-002 -6.58640000E+000 0.00000000E+000
-1.12830000E+001 0.00000000E+000 0.00000000E+000
2.06070000E+000 -7.86590000E+000 0.00000000E+000
-6.55970000E+000 -3.82580000E+000 0.00000000E+000
-9.42160000E+000 -1.83740000E+000 0.00000000E+000
-3.32070000E+000 -6.67820000E+000 0.00000000E+000
-8.54890000E+000 -3.63120000E+000 0.00000000E+000
5.94800000E-002 -8.41540000E+000 0.00000000E+000
5.00000000E+000 -1.00000000E+001 0.00000000E+000
-5.73670000E+000 -5.64820000E+000 0.00000000E+000
-1.33770000E+001 0.00000000E+000 0.00000000E+000
-1.47150000E+000 -7.92040000E+000 0.00000000E+000
-1.18970000E+001 -1.72300000E+000 0.00000000E+000
2.97460000E+000 -1.00000000E+001 0.00000000E+000
-7.72640000E+000 -5.44860000E+000 0.00000000E+000
-1.06310000E+001 -3.47470000E+000 0.00000000E+000
9.49180000E-001 -1.00000000E+001 0.00000000E+000
-1.54710000E+001 0.00000000E+000 0.00000000E+000
-4.77050000E+000 -8.02110000E+000 0.00000000E+000
-9.70970000E+000 -5.23440000E+000 0.00000000E+000
-1.07620000E+000 -1.00000000E+001 0.00000000E+000
-1.42680000E+001 -1.68530000E+000 0.00000000E+000
-1.25070000E+001 -3.31520000E+000 0.00000000E+000
-6.56660000E+000 -7.77900000E+000 0.00000000E+000
-3.10160000E+000 -1.00000000E+001 0.00000000E+000
-1.17000000E+001 -5.10700000E+000 0.00000000E+000
-1.74240000E+001 0.00000000E+000 0.00000000E+000
-8.81870000E+000 -7.65770000E+000 0.00000000E+000
-1.64480000E+001 -1.73210000E+000 0.00000000E+000
-5.12710000E+000 -1.00000000E+001 0.00000000E+000
-1.52670000E+001 -3.29220000E+000 0.00000000E+000
-1.08890000E+001 -6.97060000E+000 0.00000000E+000
-1.35520000E+001 -4.97920000E+000 0.00000000E+000
-1.92270000E+001 0.00000000E+000 0.00000000E+000
-7.15250000E+000 -1.00000000E+001 0.00000000E+000
-1.83260000E+001 -1.73210000E+000 0.00000000E+000
-1.27360000E+001 -6.79090000E+000 0.00000000E+000
-1.02280000E+001 -8.76580000E+000 0.00000000E+000
-1.72210000E+001 -3.38040000E+000 0.00000000E+000
-1.55920000E+001 -4.88780000E+000 0.00000000E+000
-9.17790000E+000 -1.00000000E+001 0.00000000E+000
-2.08820000E+001 0.00000000E+000 0.00000000E+000
-1.21420000E+001 -8.26790000E+000 0.00000000E+000
-1.46760000E+001 -6.61790000E+000 0.00000000E+000
-2.00550000E+001 -1.71810000E+000 0.00000000E+000
-1.75740000E+001 -4.86730000E+000 0.00000000E+000
-1.11860000E+001 -1.00000000E+001 0.00000000E+000
-1.92040000E+001 -3.45710000E+000 0.00000000E+000
-2.23910000E+001 0.00000000E+000 0.00000000E+000
-1.40050000E+001 -8.26790000E+000 0.00000000E+000
-1.66560000E+001 -6.56010000E+000 0.00000000E+000
-2.16360000E+001 -1.56770000E+000 0.00000000E+000
-1.30980000E+001 -1.00000000E+001 0.00000000E+000
-2.37620000E+001 0.00000000E+000 0.00000000E+000
[...]
POINT_DATA      250
SCALARS Ux float
LOOKUP_TABLE default
1.00000000E+000
9.98414176E-001
1.00000000E+000
9.94305304E-001
1.00000000E+000
9.92423143E-001
9.87702834E-001
1.00000000E+000
9.85637165E-001
9.91531176E-001
9.78344984E-001
1.00000000E+000
9.78485133E-001
9.83168044E-001
9.67573472E-001
1.00000000E+000
9.67704002E-001
9.69016742E-001
9.76959029E-001
9.56131491E-001
1.00000000E+000
9.56546934E-001
9.55967468E-001
9.58412783E-001
9.45676727E-001
9.45335532E-001
9.43837317E-001
1.00000000E+000
9.38704765E-001
9.40294623E-001
9.39262978E-001
9.00344391E-001
9.28536921E-001
9.35171791E-001
9.29972645E-001
9.36843833E-001
9.14333257E-001
9.08362516E-001
9.17383826E-001
8.44153109E-001
9.26540005E-001
9.31340202E-001
8.62145672E-001
9.01579311E-001
9.15907415E-001
9.31491684E-001
8.73271798E-001
9.02336436E-001
8.19208339E-001
9.24485441E-001
7.98195460E-001
8.73147540E-001
8.35848275E-001
9.15557237E-001
8.79927092E-001
9.02127215E-001
8.41197948E-001
9.29342633E-001
9.27193581E-001
8.54986860E-001
9.21646348E-001
7.76379507E-001
7.56279473E-001
7.94472193E-001
8.83349327E-001
9.11204286E-001
8.09734010E-001
8.59284404E-001
8.95743511E-001
8.22832953E-001
7.37842826E-001
7.54285826E-001
7.16359530E-001
8.74780027E-001
8.35167264E-001
7.71377360E-001
7.87157562E-001
8.48665443E-001
8.02313133E-001
6.99149356E-001
7.16796924E-001
7.32718771E-001
6.77738642E-001
8.17936360E-001
7.49895796E-001
7.66792221E-001
6.79614767E-001
6.62720936E-001
7.83992200E-001
6.94049505E-001
7.11740777E-001
6.40398338E-001
7.29588157E-001
7.47806325E-001
6.42068811E-001
6.55463614E-001
6.27440995E-001
6.72983906E-001
6.91208588E-001
6.04675980E-001
7.10085124E-001
6.23453904E-001
6.07563206E-001
5.92722412E-001
6.33698601E-001
6.51742423E-001
6.71111036E-001
5.71333717E-001
5.85328044E-001
5.95920153E-001
5.72327253E-001
6.12828680E-001
5.60003298E-001
6.30679196E-001
5.41321737E-001
5.48806259E-001
5.57137633E-001
5.73125335E-001
5.40000089E-001
5.32672883E-001
5.87741831E-001
5.15740670E-001
5.17620878E-001
5.26985244E-001
5.19017802E-001
5.13282113E-001
5.38840021E-001
5.08397161E-001
4.95315171E-001
4.87997506E-001
4.81249706E-001
4.91129540E-001
4.66959495E-001
4.91144321E-001
4.89460741E-001
3.97134789E-001
4.58615800E-001
4.80593914E-001
4.64870394E-001
4.72647890E-001
4.75693661E-001
4.27298080E-001
4.76258059E-001
3.45502374E-001
3.81263939E-001
4.30835669E-001
4.72339341E-001
4.50107638E-001
4.59721213E-001
3.00432962E-001
4.65993984E-001
3.90323416E-001
3.38135487E-001
4.24840944E-001
3.51944865E-001
4.52822712E-001
4.69003533E-001
3.95134768E-001
2.57741408E-001
4.41165003E-001
2.87050427E-001
4.65582458E-001
3.61806035E-001
3.10778220E-001
4.56740406E-001
2.16120712E-001
4.01666361E-001
3.25652222E-001
4.41645976E-001
2.39707989E-001
2.73737805E-001
3.75248389E-001
4.19997351E-001
2.87828061E-001
1.77704776E-001
3.37696012E-001
1.96797816E-001
3.94356570E-001
2.19598018E-001
3.01156144E-001
2.52218153E-001
1.42228216E-001
3.63785674E-001
1.60074654E-001
2.66669926E-001
3.11788860E-001
1.81566420E-001
2.12787264E-001
3.29873141E-001
1.09139399E-001
2.77014786E-001
2.29799776E-001
1.26233566E-001
1.74532103E-001
2.94186038E-001
1.43265675E-001
7.72639450E-002
2.42022771E-001
1.91816435E-001
9.48798600E-002
2.58840015E-001
4.39725598E-002
1.08831996E-001
2.08376610E-001
1.28818608E-001
1.59465305E-001
5.65669386E-002
2.24585517E-001
0.00000000E+000
1.76302635E-001
7.25264621E-002
2.14369823E-002
9.23127865E-002
2.60208521E-017
1.91754575E-001
1.45799957E-001
1.13521330E-001
1.60436049E-001
4.07660017E-017
3.43932182E-002
1.08072180E-002
1.16840657E-001
5.11061972E-002
1.30591462E-001
1.38777878E-017
8.91290860E-002
6.33804423E-002
1.01868447E-001
9.55328193E-003
-2.25514052E-017
6.23574234E-002
2.06623033E-002
7.33219166E-002
2.68085622E-002
3.44546697E-002
-2.77555756E-017
6.03800658E-003
4.17470254E-002
-2.25514052E-017
1.37964939E-002
4.07660017E-017
7.06894640E-003
8.94753657E-003
-2.42861287E-017
8.02309608E-018
-2.42861287E-017
-1.12757026E-017
-3.46944695E-018
8.67361738E-018
-0.00000000E+000
