# vtk DataFile Version 1.0
ECM-CELL DIFFUSION-MECHANICS
ASCII

DATASET UNSTRUCTURED_GRID
POINTS      183 float
1.50000000E+001 3.00000000E+001 0.00000000E+000
1.33330000E+001 2.83330000E+001 0.00000000E+000
1.25000000E+001 3.00000000E+001 0.00000000E+000
1.16670000E+001 2.66670000E+001 0.00000000E+000
1.00000000E+001 3.00000000E+001 0.00000000E+000
1.02670000E+001 2.70270000E+001 0.00000000E+000
9.43330000E+000 2.86940000E+001 0.00000000E+000
8.86660000E+000 2.73880000E+001 0.00000000E+000
1.00000000E+001 2.50000000E+001 0.00000000E+000
7.50000000E+000 3.00000000E+001 0.00000000E+000
6.89980000E+000 2.64430000E+001 0.00000000E+000
8.33330000E+000 2.33330000E+001 0.00000000E+000
5.00000000E+000 3.00000000E+001 0.00000000E+000
6.63320000E+000 2.44160000E+001 0.00000000E+000
4.96650000E+000 2.77490000E+001 0.00000000E+000
4.93300000E+000 2.54980000E+001 0.00000000E+000
6.66670000E+000 2.16670000E+001 0.00000000E+000
2.50000000E+000 3.00000000E+001 0.00000000E+000
3.61710000E+000 2.32880000E+001 0.00000000E+000
2.30410000E+000 2.55580000E+001 0.00000000E+000
5.00000000E+000 2.00000000E+001 0.00000000E+000
3.65060000E+000 2.05390000E+001 0.00000000E+000
0.00000000E+000 3.00000000E+001 0.00000000E+000
-1.62370000E-001 2.78090000E+001 0.00000000E+000
2.30110000E+000 2.10770000E+001 0.00000000E+000
-3.24740000E-001 2.56170000E+001 0.00000000E+000
5.00000000E+000 1.75000000E+001 0.00000000E+000
6.46630000E-001 2.16540000E+001 0.00000000E+000
-6.66300000E-001 2.39250000E+001 0.00000000E+000
-2.50000000E+000 3.00000000E+001 0.00000000E+000
1.40230000E+000 1.89590000E+001 0.00000000E+000
-1.00790000E+000 2.22320000E+001 0.00000000E+000
5.00000000E+000 1.50000000E+001 0.00000000E+000
-2.66240000E+000 2.53090000E+001 0.00000000E+000
2.75170000E+000 1.59200000E+001 0.00000000E+000
5.03470000E-001 1.68400000E+001 0.00000000E+000
-5.00000000E+000 3.00000000E+001 0.00000000E+000
-3.00390000E+000 2.11160000E+001 0.00000000E+000
5.00000000E+000 1.25000000E+001 0.00000000E+000
-5.00000000E+000 2.75000000E+001 0.00000000E+000
-5.00000000E+000 2.50000000E+001 0.00000000E+000
-2.24830000E+000 1.84200000E+001 0.00000000E+000
-5.00000000E+000 2.25000000E+001 0.00000000E+000
1.27300000E-001 1.40900000E+001 0.00000000E+000
5.00000000E+000 1.00000000E+001 0.00000000E+000
-5.00000000E+000 2.00000000E+001 0.00000000E+000
2.37560000E+000 1.06700000E+001 0.00000000E+000
-5.00000000E+000 1.75000000E+001 0.00000000E+000
-2.48880000E-001 1.13410000E+001 0.00000000E+000
-2.62440000E+000 1.31700000E+001 0.00000000E+000
5.00000000E+000 7.50000000E+000 0.00000000E+000
-5.00000000E+000 1.50000000E+001 0.00000000E+000
-1.38490000E+000 1.01410000E+001 0.00000000E+000
2.65570000E-001 8.52280000E+000 0.00000000E+000
-5.00000000E+000 1.25000000E+001 0.00000000E+000
5.00000000E+000 5.00000000E+000 0.00000000E+000
-2.52080000E+000 8.94210000E+000 0.00000000E+000
2.89000000E+000 5.35240000E+000 0.00000000E+000
-3.76040000E+000 9.47110000E+000 0.00000000E+000
7.80020000E-001 5.70480000E+000 0.00000000E+000
-5.00000000E+000 1.00000000E+001 0.00000000E+000
-2.37930000E+000 7.19690000E+000 0.00000000E+000
-7.28890000E-001 5.57820000E+000 0.00000000E+000
5.00000000E+000 2.50000000E+000 0.00000000E+000
-2.23780000E+000 5.45160000E+000 0.00000000E+000
-5.00000000E+000 7.50000000E+000 0.00000000E+000
7.70540000E-001 3.32680000E+000 0.00000000E+000
-3.61890000E+000 5.22580000E+000 0.00000000E+000
-2.19840000E+000 3.79250000E+000 0.00000000E+000
5.00000000E+000 1.77640000E-015 0.00000000E+000
2.88050000E+000 4.74390000E-001 0.00000000E+000
-5.00000000E+000 5.00000000E+000 0.00000000E+000
7.61050000E-001 9.48780000E-001 0.00000000E+000
-6.98930000E-001 1.54110000E+000 0.00000000E+000
-2.15890000E+000 2.13350000E+000 0.00000000E+000
5.00000000E+000 -2.50000000E+000 0.00000000E+000
-5.00000000E+000 2.50000000E+000 0.00000000E+000
-3.57950000E+000 1.06670000E+000 0.00000000E+000
1.17790000E-001 -1.56020000E+000 0.00000000E+000
-5.00000000E+000 0.00000000E+000 0.00000000E+000
5.00000000E+000 -5.00000000E+000 0.00000000E+000
-2.76270000E+000 -2.03450000E+000 0.00000000E+000
2.23730000E+000 -4.53450000E+000 0.00000000E+000
-7.28820000E+000 0.00000000E+000 0.00000000E+000
-5.25460000E-001 -4.06910000E+000 0.00000000E+000
-9.57650000E+000 0.00000000E+000 0.00000000E+000
5.00000000E+000 -7.50000000E+000 0.00000000E+000
-6.48960000E+000 -2.49850000E+000 0.00000000E+000
-2.28110000E+000 -5.20350000E+000 0.00000000E+000
1.00650000E-001 -7.03450000E+000 0.00000000E+000
-9.99310000E+000 -1.32280000E+000 0.00000000E+000
-1.18650000E+001 0.00000000E+000 0.00000000E+000
-4.03670000E+000 -6.33800000E+000 0.00000000E+000
5.00000000E+000 -1.00000000E+001 0.00000000E+000
-1.04100000E+001 -2.64560000E+000 0.00000000E+000
-6.00790000E+000 -5.66760000E+000 0.00000000E+000
-9.19440000E+000 -3.82130000E+000 0.00000000E+000
2.86340000E+000 -1.00000000E+001 0.00000000E+000
-1.41530000E+001 0.00000000E+000 0.00000000E+000
-7.97910000E+000 -4.99710000E+000 0.00000000E+000
7.26770000E-001 -1.00000000E+001 0.00000000E+000
-1.20230000E+001 -2.82460000E+000 0.00000000E+000
-3.79160000E+000 -8.16900000E+000 0.00000000E+000
-1.38940000E+001 -1.50180000E+000 0.00000000E+000
-1.40980000E+000 -1.00000000E+001 0.00000000E+000
-1.63880000E+001 0.00000000E+000 0.00000000E+000
-1.02740000E+001 -5.56060000E+000 0.00000000E+000
-1.36360000E+001 -3.00370000E+000 0.00000000E+000
-7.89940000E+000 -7.49850000E+000 0.00000000E+000
-3.54650000E+000 -1.00000000E+001 0.00000000E+000
-1.31030000E+001 -4.56380000E+000 0.00000000E+000
-5.68310000E+000 -1.00000000E+001 0.00000000E+000
-1.55230000E+001 -3.12440000E+000 0.00000000E+000
-1.86240000E+001 0.00000000E+000 0.00000000E+000
-1.25700000E+001 -6.12400000E+000 0.00000000E+000
-1.80170000E+001 -1.62260000E+000 0.00000000E+000
-7.81970000E+000 -1.00000000E+001 0.00000000E+000
-2.04210000E+001 0.00000000E+000 0.00000000E+000
-1.74100000E+001 -3.24510000E+000 0.00000000E+000
-1.45430000E+001 -6.31710000E+000 0.00000000E+000
-1.23310000E+001 -8.06200000E+000 0.00000000E+000
-9.95630000E+000 -1.00000000E+001 0.00000000E+000
-1.69630000E+001 -4.87760000E+000 0.00000000E+000
-1.91310000E+001 -3.31160000E+000 0.00000000E+000
-2.22180000E+001 0.00000000E+000 0.00000000E+000
-1.65160000E+001 -6.51010000E+000 0.00000000E+000
-1.20930000E+001 -1.00000000E+001 0.00000000E+000
-2.15350000E+001 -1.68910000E+000 0.00000000E+000
-2.36090000E+001 0.00000000E+000 0.00000000E+000
-2.08520000E+001 -3.37810000E+000 0.00000000E+000
-1.63140000E+001 -8.25510000E+000 0.00000000E+000
-1.82450000E+001 -6.59070000E+000 0.00000000E+000
-1.41030000E+001 -1.00000000E+001 0.00000000E+000
-2.04130000E+001 -5.02470000E+000 0.00000000E+000
-2.50000000E+001 0.00000000E+000 0.00000000E+000
-2.22880000E+001 -3.44440000E+000 0.00000000E+000
-2.43620000E+001 -1.75530000E+000 0.00000000E+000
-1.99730000E+001 -6.67130000E+000 0.00000000E+000
-1.61120000E+001 -1.00000000E+001 0.00000000E+000
-2.62940000E+001 -1.70370000E-001 0.00000000E+000
-2.37230000E+001 -3.51070000E+000 0.00000000E+000
-2.14320000E+001 -6.71580000E+000 0.00000000E+000
-1.78490000E+001 -1.00000000E+001 0.00000000E+000
-1.97790000E+001 -8.33570000E+000 0.00000000E+000
-2.33070000E+001 -5.13550000E+000 0.00000000E+000
-2.49200000E+001 -3.71370000E+000 0.00000000E+000
-2.75000000E+001 -6.69870000E-001 0.00000000E+000
-2.28920000E+001 -6.76020000E+000 0.00000000E+000
-2.68090000E+001 -2.29330000E+000 0.00000000E+000
-1.95850000E+001 -1.00000000E+001 0.00000000E+000
-2.61170000E+001 -3.91680000E+000 0.00000000E+000
-2.41140000E+001 -6.80960000E+000 0.00000000E+000
-2.85360000E+001 -1.46450000E+000 0.00000000E+000
-2.27120000E+001 -8.38010000E+000 0.00000000E+000
-2.10590000E+001 -1.00000000E+001 0.00000000E+000
-2.57270000E+001 -5.38790000E+000 0.00000000E+000
-2.69990000E+001 -4.29120000E+000 0.00000000E+000
-2.53370000E+001 -6.85900000E+000 0.00000000E+000
-2.25330000E+001 -1.00000000E+001 0.00000000E+000
-2.93300000E+001 -2.50000000E+000 0.00000000E+000
-2.86060000E+001 -3.58280000E+000 0.00000000E+000
-2.78810000E+001 -4.66560000E+000 0.00000000E+000
-2.63160000E+001 -6.85280000E+000 0.00000000E+000
-2.51680000E+001 -8.42950000E+000 0.00000000E+000
-2.75880000E+001 -5.75610000E+000 0.00000000E+000
-2.37670000E+001 -1.00000000E+001 0.00000000E+000
-2.83310000E+001 -5.03230000E+000 0.00000000E+000
-2.98300000E+001 -3.70590000E+000 0.00000000E+000
-2.72950000E+001 -6.84650000E+000 0.00000000E+000
-2.87810000E+001 -5.39900000E+000 0.00000000E+000
-2.78820000E+001 -6.71420000E+000 0.00000000E+000
-2.86250000E+001 -5.99040000E+000 0.00000000E+000
-2.50000000E+001 -1.00000000E+001 0.00000000E+000
-2.93910000E+001 -5.19950000E+000 0.00000000E+000
-2.84690000E+001 -6.58180000E+000 0.00000000E+000
-2.73980000E+001 -8.08830000E+000 0.00000000E+000
-3.00000000E+001 -5.00000000E+000 0.00000000E+000
-2.62940000E+001 -9.82960000E+000 0.00000000E+000
-2.89000000E+001 -7.04090000E+000 0.00000000E+000
-2.98300000E+001 -6.29410000E+000 0.00000000E+000
-2.75000000E+001 -9.33010000E+000 0.00000000E+000
-2.93300000E+001 -7.50000000E+000 0.00000000E+000
-2.85360000E+001 -8.53550000E+000 0.00000000E+000

CELLS       48      432
   8         100          93          80          84          97          86          82          89  
   8         109         100          84          92         104          89          88         102  
   8         116         109          92          99         111         102          95         108  
   8         126         116          99         114         121         108         106         120  
   8         138         126         114         125         132         120         119         130  
   8         149         138         125         137         142         130         131         143  
   8         158         149         137         147         154         143         141         153  
   8         172         158         147         157         165         153         151         163  
   8         180         172         157         168         177         163         162         175  
   8         181         180         168         174         182         175         170         178  
   8         176         181         174         169         179         178         171         173  
   8         159         176         169         161         167         173         166         160  
   8         146         159         161         150         152         160         156         148  
   8         134         146         150         140         139         148         145         136  
   8         124         134         140         129         128         136         135         127  
   8         113         124         129         118         117         127         123         115  
   8         125         118         129         137         122         123         133         131  
   8         137         129         140         147         133         135         144         141  
   8         147         140         150         157         144         145         155         151  
   8         150         161         168         157         156         164         162         155  
   8         169         174         168         161         171         170         164         166  
   8          98         113         118         107         105         115         112         103  
   8         114         107         118         125         110         112         122         119  
   8          85          98         107          94          91         103         101          90  
   8         107         114          99          94         110         106          96         101  
   8          85          94          99          79          90          96          87          83  
   8          15           7           4          12          10           6           9          14  
   8          20          11          15          24          16          13          18          21  
   8          22          36          40          25          29          39          33          23  
   8          12          22          25          15          17          23          19          14  
   8          80          69          72          84          75          70          78          82  
   8          32          20          24          35          26          21          30          34  
   8          40          45          31          25          42          37          28          33  
   8          15          25          31          24          19          28          27          18  
   8          69          55          59          72          63          57          66          70  
   8          24          31          45          35          27          37          41          30  
   8          55          44          48          59          50          46          53          57  
   8          44          32          35          48          38          34          43          46  
   8          35          45          51          48          41          47          49          43  
   8          51          60          56          48          54          58          52          49  
   8          60          71          64          56          65          67          61          58  
   8          48          56          64          59          52          61          62          53  
   8          71          79          74          64          76          77          68          67  
   8          74          72          59          64          73          66          62          68  
   8          99          92          84          79          95          88          81          87  
   8          72          74          79          84          73          77          81          78  
   8           3           0           4           7           1           2           6           5  
   8           3           7          15          11           5          10          13           8  

CELL_TYPES       48
   23    23    23    23    23    23    23    23    23    23    23    23    23    23    23    23    23    23    23    23    23    23    23    23    23    23    23    23    23    23    23    23    23    23    23    23    23    23    23    23    23    23    23    23    23    23    23    23 
POINT_DATA      183
SCALARS Ux float
LOOKUP_TABLE default
1.00000000E+000
1.00000000E+000
9.97794221E-001
1.00000000E+000
9.91230210E-001
9.95033807E-001
9.89429686E-001
9.88996899E-001
1.00000000E+000
9.80011972E-001
9.80227728E-001
1.00000000E+000
9.66301604E-001
9.84615996E-001
9.66297335E-001
9.66893838E-001
1.00000000E+000
9.51571594E-001
9.56014558E-001
9.46492459E-001
1.00000000E+000
9.54889956E-001
9.38477124E-001
9.36307236E-001
9.24915882E-001
9.30058301E-001
8.83846480E-001
9.11526622E-001
9.19602614E-001
9.30006211E-001
8.88699699E-001
9.06745728E-001
8.14404444E-001
9.19052709E-001
8.35622948E-001
8.39547432E-001
9.26928938E-001
8.86500786E-001
7.61499607E-001
9.23841471E-001
9.13834839E-001
8.55216110E-001
8.97121471E-001
7.88468905E-001
7.14699002E-001
8.71632310E-001
7.25087356E-001
8.37988929E-001
7.36648894E-001
7.67186064E-001
6.66484340E-001
7.97728559E-001
7.12127788E-001
6.82706481E-001
7.53860451E-001
6.20560835E-001
6.88209148E-001
6.25934203E-001
6.97987670E-001
6.29582045E-001
7.07500949E-001
6.54804288E-001
6.25497928E-001
5.77925934E-001
6.20666476E-001
6.59519833E-001
5.86231305E-001
6.13125096E-001
5.86183408E-001
5.40025824E-001
5.44555383E-001
6.09297528E-001
5.45598412E-001
5.48368621E-001
5.53981051E-001
5.09008538E-001
5.50511142E-001
5.16776326E-001
5.03648058E-001
4.65528338E-001
4.85870702E-001
4.70642149E-001
4.84089416E-001
3.91797768E-001
4.70914850E-001
3.33499008E-001
4.72118577E-001
3.99538145E-001
4.45387545E-001
4.56281978E-001
3.26405767E-001
2.87372634E-001
4.15404365E-001
4.67636380E-001
3.14822653E-001
3.89735243E-001
3.38465875E-001
4.64160989E-001
2.42360520E-001
3.56522890E-001
4.54166823E-001
2.82530277E-001
4.12745603E-001
2.46786816E-001
4.37234111E-001
1.98477321E-001
3.13609170E-001
2.51812897E-001
3.52682018E-001
4.14425296E-001
2.60662109E-001
3.84846769E-001
2.14938176E-001
1.54578225E-001
2.70090340E-001
1.66908315E-001
3.52204969E-001
1.19932144E-001
1.78411404E-001
2.32608907E-001
2.73374171E-001
3.15751193E-001
1.86871115E-001
1.45759020E-001
8.45829672E-002
1.95036247E-001
2.77113767E-001
9.77179199E-002
4.82044340E-002
1.13488918E-001
1.98479960E-001
1.62032546E-001
2.40041690E-001
1.21732422E-001
0.00000000E+000
8.56318775E-002
4.18850704E-002
1.29130472E-001
2.02221148E-001
-1.56125113E-017
6.23642506E-002
1.02317674E-001
1.69049320E-001
1.32487259E-001
7.05244972E-002
4.35773133E-002
-5.72458747E-017
7.58380730E-002
1.47274309E-002
1.35439899E-001
3.01174495E-002
5.38113486E-002
-4.85722573E-017
7.38912454E-002
1.07432127E-001
3.55909016E-002
2.12726179E-002
3.68950127E-002
7.77873660E-002
1.75207071E-016
6.77818899E-003
1.35435981E-002
2.44519171E-002
2.70319513E-002
1.58843550E-002
4.36439888E-002
1.02394295E-002
1.58727198E-016
1.60493670E-002
7.11225024E-003
1.14073112E-002
7.56238893E-003
2.18575158E-016
3.27752599E-003
7.53208172E-003
8.26347653E-003
1.04083409E-017
-5.55111512E-017
3.58383065E-003
-4.85722573E-017
3.46944695E-017
9.71445147E-017
0.00000000E+000
