# vtk DataFile Version 1.0
ECM-CELL DIFFUSION-MECHANICS
ASCII

DATASET UNSTRUCTURED_GRID
POINTS       53 float
1.50000000E+001 3.00000000E+001 0.00000000E+000
1.16670000E+001 2.66670000E+001 0.00000000E+000
1.00000000E+001 3.00000000E+001 0.00000000E+000
8.33330000E+000 2.33330000E+001 0.00000000E+000
5.00000000E+000 3.00000000E+001 0.00000000E+000
3.60480000E+000 2.47290000E+001 0.00000000E+000
5.00000000E+000 2.00000000E+001 0.00000000E+000
0.00000000E+000 3.00000000E+001 0.00000000E+000
-1.24260000E+000 2.59370000E+001 0.00000000E+000
-1.75470000E-001 2.20030000E+001 0.00000000E+000
5.00000000E+000 1.50000000E+001 0.00000000E+000
2.53520000E-001 1.72760000E+001 0.00000000E+000
-5.00000000E+000 3.00000000E+001 0.00000000E+000
-5.00000000E+000 2.50000000E+001 0.00000000E+000
5.00000000E+000 1.00000000E+001 0.00000000E+000
-5.00000000E+000 2.00000000E+001 0.00000000E+000
8.90420000E-002 1.23760000E+001 0.00000000E+000
-5.00000000E+000 1.50000000E+001 0.00000000E+000
5.00000000E+000 5.00000000E+000 0.00000000E+000
2.80730000E-001 6.98240000E+000 0.00000000E+000
-5.00000000E+000 1.00000000E+001 0.00000000E+000
5.00000000E+000 1.77640000E-015 0.00000000E+000
-5.00000000E+000 5.00000000E+000 0.00000000E+000
-1.22320000E-002 2.42480000E-001 0.00000000E+000
-5.00000000E+000 0.00000000E+000 0.00000000E+000
5.00000000E+000 -5.00000000E+000 0.00000000E+000
-9.57650000E+000 0.00000000E+000 0.00000000E+000
-2.04160000E+000 -4.84790000E+000 0.00000000E+000
-7.28820000E+000 -4.33010000E+000 0.00000000E+000
5.00000000E+000 -1.00000000E+001 0.00000000E+000
-1.41530000E+001 0.00000000E+000 0.00000000E+000
1.69830000E-002 -1.00000000E+001 0.00000000E+000
-1.18650000E+001 -4.33010000E+000 0.00000000E+000
-4.96600000E+000 -1.00000000E+001 0.00000000E+000
-1.86240000E+001 0.00000000E+000 0.00000000E+000
-1.65520000E+001 -4.16920000E+000 0.00000000E+000
-9.94900000E+000 -1.00000000E+001 0.00000000E+000
-2.22180000E+001 0.00000000E+000 0.00000000E+000
-2.04210000E+001 -3.73300000E+000 0.00000000E+000
-1.46360000E+001 -1.00000000E+001 0.00000000E+000
-2.50000000E+001 0.00000000E+000 0.00000000E+000
-1.96150000E+001 -6.95240000E+000 0.00000000E+000
-1.86850000E+001 -1.00000000E+001 0.00000000E+000
-2.55680000E+001 -3.17870000E+000 0.00000000E+000
-2.75000000E+001 -6.69870000E-001 0.00000000E+000
-2.35620000E+001 -7.01270000E+000 0.00000000E+000
-2.21240000E+001 -1.00000000E+001 0.00000000E+000
-2.93300000E+001 -2.50000000E+000 0.00000000E+000
-2.65140000E+001 -6.51440000E+000 0.00000000E+000
-2.50000000E+001 -1.00000000E+001 0.00000000E+000
-3.00000000E+001 -5.00000000E+000 0.00000000E+000
-2.75000000E+001 -9.33010000E+000 0.00000000E+000
-2.93300000E+001 -7.50000000E+000 0.00000000E+000

CELLS       67      268
   3          40          44          43  
   3          47          50          43  
   3          52          51          48  
   3          44          47          43  
   3          50          52          48  
   3          51          49          48  
   3          37          40          43  
   3          49          46          45  
   3          45          46          41  
   3          49          45          48  
   3          48          45          43  
   3          34          37          38  
   3          46          42          41  
   3          41          42          39  
   3          48          43          50  
   3          45          41          38  
   3          38          41          35  
   3          38          37          43  
   3          34          38          35  
   3          30          34          35  
   3          24          26          28  
   3          26          30          32  
   3          43          45          38  
   3          35          41          39  
   3          30          35          32  
   3          32          35          39  
   3           6           3           5  
   3           3           1           4  
   3           1           0           2  
   3           1           2           4  
   3          39          36          32  
   3          28          26          32  
   3          28          32          36  
   3          24          28          27  
   3           5           3           4  
   3           6           5           9  
   3          27          28          33  
   3          24          27          23  
   3           9           5           8  
   3           6           9          11  
   3          36          33          28  
   3          33          31          27  
   3          31          29          25  
   3          23          27          25  
   3          24          23          22  
   3           8           5           7  
   3           8           7          12  
   3           9          13          15  
   3          11           9          15  
   3           6          11          10  
   3          10          11          16  
   3          16          11          17  
   3          10          16          14  
   3          14          16          19  
   3          19          16          20  
   3          14          19          18  
   3          18          19          23  
   3           4           7           5  
   3          15          17          11  
   3          21          18          23  
   3          12          13           8  
   3           8          13           9  
   3          20          22          19  
   3          25          21          23  
   3          17          20          16  
   3          27          31          25  
   3          19          22          23  

CELL_TYPES       67
    5     5     5     5     5     5     5     5     5     5     5     5     5     5     5     5     5     5     5     5     5     5     5     5     5     5     5     5     5     5     5     5     5     5     5     5     5     5     5     5     5     5     5     5     5     5     5     5     5     5     5     5     5     5     5     5     5     5     5     5     5     5     5     5     5     5     5 
POINT_DATA       53
SCALARS Ux float
LOOKUP_TABLE default
1.00000000E+000
1.00000000E+000
9.92839711E-001
1.00000000E+000
9.74940333E-001
9.70124464E-001
1.00000000E+000
9.52298801E-001
9.42816746E-001
9.28043716E-001
8.40995563E-001
8.70203416E-001
9.42397926E-001
9.31461208E-001
7.30098799E-001
8.90792534E-001
7.73485297E-001
8.16258801E-001
6.32227783E-001
6.64732191E-001
7.20473283E-001
5.47461526E-001
6.12439263E-001
5.34360956E-001
4.77704016E-001
4.95300432E-001
3.47313832E-001
4.59820480E-001
3.83903640E-001
4.75691125E-001
2.46546596E-001
4.56214802E-001
2.91606725E-001
4.04134310E-001
1.52840633E-001
1.96039538E-001
3.22642215E-001
7.40233246E-002
1.17836504E-001
2.32572341E-001
3.46944695E-018
1.33680988E-001
1.51362441E-001
2.72317752E-002
-4.16333634E-017
5.81778264E-002
7.87904373E-002
-4.16333634E-017
2.13771826E-002
-1.56125113E-017
-2.77555756E-017
-4.51028104E-017
0.00000000E+000
