# vtk DataFile Version 1.0
ECM-CELL DIFFUSION-MECHANICS
ASCII

DATASET UNSTRUCTURED_GRID
POINTS     2655 float
1.50000000E+001 3.00000000E+001 0.00000000E+000
1.45000000E+001 3.00000000E+001 0.00000000E+000
1.46430000E+001 2.96430000E+001 0.00000000E+000
1.40000000E+001 3.00000000E+001 0.00000000E+000
1.42860000E+001 2.92860000E+001 0.00000000E+000
1.39110000E+001 2.97560000E+001 0.00000000E+000
1.40540000E+001 2.93990000E+001 0.00000000E+000
1.38220000E+001 2.95110000E+001 0.00000000E+000
1.35000000E+001 3.00000000E+001 0.00000000E+000
1.39290000E+001 2.89290000E+001 0.00000000E+000
1.35070000E+001 2.93800000E+001 0.00000000E+000
1.30960000E+001 2.96240000E+001 0.00000000E+000
1.33820000E+001 2.89100000E+001 0.00000000E+000
1.31920000E+001 2.92480000E+001 0.00000000E+000
1.30000000E+001 3.00000000E+001 0.00000000E+000
1.35710000E+001 2.85710000E+001 0.00000000E+000
1.27830000E+001 2.90790000E+001 0.00000000E+000
1.25000000E+001 3.00000000E+001 0.00000000E+000
1.32140000E+001 2.82140000E+001 0.00000000E+000
1.23740000E+001 2.89100000E+001 0.00000000E+000
1.21870000E+001 2.94550000E+001 0.00000000E+000
1.26160000E+001 2.83830000E+001 0.00000000E+000
1.20000000E+001 3.00000000E+001 0.00000000E+000
1.28570000E+001 2.78570000E+001 0.00000000E+000
1.19220000E+001 2.87280000E+001 0.00000000E+000
1.15000000E+001 3.00000000E+001 0.00000000E+000
1.25000000E+001 2.75000000E+001 0.00000000E+000
1.14690000E+001 2.85460000E+001 0.00000000E+000
1.12340000E+001 2.92730000E+001 0.00000000E+000
1.18060000E+001 2.78440000E+001 0.00000000E+000
1.10000000E+001 3.00000000E+001 0.00000000E+000
1.21430000E+001 2.71430000E+001 0.00000000E+000
1.09140000E+001 2.83380000E+001 0.00000000E+000
1.05000000E+001 3.00000000E+001 0.00000000E+000
1.17860000E+001 2.67860000E+001 0.00000000E+000
1.01790000E+001 2.90650000E+001 0.00000000E+000
1.08930000E+001 2.72790000E+001 0.00000000E+000
1.00000000E+001 3.00000000E+001 0.00000000E+000
1.03580000E+001 2.81300000E+001 0.00000000E+000
1.14290000E+001 2.64290000E+001 0.00000000E+000
9.75430000E+000 2.84110000E+001 0.00000000E+000
9.50000000E+000 3.00000000E+001 0.00000000E+000
1.00400000E+001 2.75600000E+001 0.00000000E+000
1.10710000E+001 2.60710000E+001 0.00000000E+000
9.07520000E+000 2.93460000E+001 0.00000000E+000
9.15040000E+000 2.86920000E+001 0.00000000E+000
9.00000000E+000 3.00000000E+001 0.00000000E+000
1.02180000E+001 2.63520000E+001 0.00000000E+000
1.07140000E+001 2.57140000E+001 0.00000000E+000
9.72130000E+000 2.69890000E+001 0.00000000E+000
9.11490000E+000 2.82470000E+001 0.00000000E+000
9.40040000E+000 2.73950000E+001 0.00000000E+000
9.07950000E+000 2.78020000E+001 0.00000000E+000
8.65700000E+000 2.87630000E+001 0.00000000E+000
8.50000000E+000 3.00000000E+001 0.00000000E+000
1.03570000E+001 2.53570000E+001 0.00000000E+000
9.22710000E+000 2.66510000E+001 0.00000000E+000
8.70780000E+000 2.77580000E+001 0.00000000E+000
8.16360000E+000 2.88340000E+001 0.00000000E+000
8.08180000E+000 2.94170000E+001 0.00000000E+000
8.24990000E+000 2.82740000E+001 0.00000000E+000
8.00000000E+000 3.00000000E+001 0.00000000E+000
8.33620000E+000 2.77140000E+001 0.00000000E+000
1.00000000E+001 2.50000000E+001 0.00000000E+000
9.36650000E+000 2.56560000E+001 0.00000000E+000
8.53460000E+000 2.70130000E+001 0.00000000E+000
8.73300000E+000 2.63120000E+001 0.00000000E+000
7.65360000E+000 2.88730000E+001 0.00000000E+000
7.50000000E+000 3.00000000E+001 0.00000000E+000
7.81110000E+000 2.77810000E+001 0.00000000E+000
9.64290000E+000 2.46430000E+001 0.00000000E+000
8.05310000E+000 2.65060000E+001 0.00000000E+000
8.47520000E+000 2.57300000E+001 0.00000000E+000
7.14370000E+000 2.89120000E+001 0.00000000E+000
7.07180000E+000 2.94560000E+001 0.00000000E+000
7.21490000E+000 2.83790000E+001 0.00000000E+000
7.00000000E+000 3.00000000E+001 0.00000000E+000
7.28610000E+000 2.78470000E+001 0.00000000E+000
9.28570000E+000 2.42860000E+001 0.00000000E+000
7.32970000E+000 2.72740000E+001 0.00000000E+000
8.75150000E+000 2.47170000E+001 0.00000000E+000
7.37330000E+000 2.67010000E+001 0.00000000E+000
8.21740000E+000 2.51480000E+001 0.00000000E+000
6.63440000E+000 2.89400000E+001 0.00000000E+000
6.50000000E+000 3.00000000E+001 0.00000000E+000
6.76320000E+000 2.78980000E+001 0.00000000E+000
8.92860000E+000 2.39290000E+001 0.00000000E+000
7.26830000E+000 2.61980000E+001 0.00000000E+000
7.69040000E+000 2.54210000E+001 0.00000000E+000
6.82880000E+000 2.68150000E+001 0.00000000E+000
7.93920000E+000 2.47140000E+001 0.00000000E+000
6.12510000E+000 2.89680000E+001 0.00000000E+000
7.16330000E+000 2.56950000E+001 0.00000000E+000
6.18270000E+000 2.84590000E+001 0.00000000E+000
6.06250000E+000 2.94840000E+001 0.00000000E+000
6.24030000E+000 2.79500000E+001 0.00000000E+000
6.00000000E+000 3.00000000E+001 0.00000000E+000
8.57140000E+000 2.35710000E+001 0.00000000E+000
6.26230000E+000 2.74400000E+001 0.00000000E+000
8.11630000E+000 2.39250000E+001 0.00000000E+000
6.28440000E+000 2.69290000E+001 0.00000000E+000
6.68490000E+000 2.58570000E+001 0.00000000E+000
7.66110000E+000 2.42790000E+001 0.00000000E+000
6.96590000E+000 2.52690000E+001 0.00000000E+000
6.24550000E+000 2.64740000E+001 0.00000000E+000
5.61560000E+000 2.89810000E+001 0.00000000E+000
5.72460000E+000 2.79740000E+001 0.00000000E+000
7.21470000E+000 2.45610000E+001 0.00000000E+000
5.50000000E+000 3.00000000E+001 0.00000000E+000
8.21430000E+000 2.32140000E+001 0.00000000E+000
6.20650000E+000 2.60190000E+001 0.00000000E+000
5.78500000E+000 2.69740000E+001 0.00000000E+000
6.76840000E+000 2.48430000E+001 0.00000000E+000
7.34120000E+000 2.38890000E+001 0.00000000E+000
6.08470000E+000 2.56420000E+001 0.00000000E+000
5.10610000E+000 2.89950000E+001 0.00000000E+000
6.36560000E+000 2.50540000E+001 0.00000000E+000
5.15750000E+000 2.84960000E+001 0.00000000E+000
5.05310000E+000 2.94970000E+001 0.00000000E+000
5.20890000E+000 2.79980000E+001 0.00000000E+000
5.00000000E+000 3.00000000E+001 0.00000000E+000
5.76100000E+000 2.60770000E+001 0.00000000E+000
5.24730000E+000 2.75090000E+001 0.00000000E+000
7.85710000E+000 2.28570000E+001 0.00000000E+000
6.49310000E+000 2.44700000E+001 0.00000000E+000
5.28570000E+000 2.70200000E+001 0.00000000E+000
7.43920000E+000 2.31780000E+001 0.00000000E+000
5.96280000E+000 2.52640000E+001 0.00000000E+000
5.30060000E+000 2.65780000E+001 0.00000000E+000
7.02120000E+000 2.34990000E+001 0.00000000E+000
5.67800000E+000 2.54040000E+001 0.00000000E+000
6.61950000E+000 2.37980000E+001 0.00000000E+000
5.31560000E+000 2.61360000E+001 0.00000000E+000
4.59470000E+000 2.89960000E+001 0.00000000E+000
4.50000000E+000 3.00000000E+001 0.00000000E+000
5.35440000E+000 2.58400000E+001 0.00000000E+000
4.68400000E+000 2.79880000E+001 0.00000000E+000
5.70510000E+000 2.49470000E+001 0.00000000E+000
6.21780000E+000 2.40970000E+001 0.00000000E+000
5.39320000E+000 2.55440000E+001 0.00000000E+000
7.50000000E+000 2.25000000E+001 0.00000000E+000
4.75630000E+000 2.69850000E+001 0.00000000E+000
5.83260000E+000 2.43640000E+001 0.00000000E+000
6.68500000E+000 2.31300000E+001 0.00000000E+000
4.84610000E+000 2.60480000E+001 0.00000000E+000
5.09340000E+000 2.53650000E+001 0.00000000E+000
5.44740000E+000 2.46300000E+001 0.00000000E+000
4.08330000E+000 2.89980000E+001 0.00000000E+000
4.04170000E+000 2.94990000E+001 0.00000000E+000
4.12120000E+000 2.84880000E+001 0.00000000E+000
4.00000000E+000 3.00000000E+001 0.00000000E+000
4.15910000E+000 2.79780000E+001 0.00000000E+000
5.88720000E+000 2.37270000E+001 0.00000000E+000
4.19300000E+000 2.74650000E+001 0.00000000E+000
7.14290000E+000 2.21430000E+001 0.00000000E+000
5.12050000E+000 2.49080000E+001 0.00000000E+000
6.74580000E+000 2.24520000E+001 0.00000000E+000
4.22690000E+000 2.69510000E+001 0.00000000E+000
4.30180000E+000 2.64560000E+001 0.00000000E+000
6.34880000E+000 2.27610000E+001 0.00000000E+000
4.79360000E+000 2.51850000E+001 0.00000000E+000
4.58510000E+000 2.55730000E+001 0.00000000E+000
4.37670000E+000 2.59610000E+001 0.00000000E+000
5.95270000E+000 2.30600000E+001 0.00000000E+000
5.11220000E+000 2.42950000E+001 0.00000000E+000
3.56400000E+000 2.89950000E+001 0.00000000E+000
3.50000000E+000 3.00000000E+001 0.00000000E+000
5.55660000E+000 2.33580000E+001 0.00000000E+000
3.61900000E+000 2.79630000E+001 0.00000000E+000
6.78570000E+000 2.17860000E+001 0.00000000E+000
5.16680000E+000 2.36590000E+001 0.00000000E+000
3.65660000E+000 2.68980000E+001 0.00000000E+000
4.37520000E+000 2.48960000E+001 0.00000000E+000
5.99550000E+000 2.23800000E+001 0.00000000E+000
4.77700000E+000 2.39610000E+001 0.00000000E+000
3.02230000E+000 2.94960000E+001 0.00000000E+000
3.04470000E+000 2.89930000E+001 0.00000000E+000
3.00000000E+000 3.00000000E+001 0.00000000E+000
3.06180000E+000 2.84710000E+001 0.00000000E+000
3.72390000E+000 2.57480000E+001 0.00000000E+000
5.20610000E+000 2.29740000E+001 0.00000000E+000
4.36690000E+000 2.42830000E+001 0.00000000E+000
3.07880000E+000 2.79490000E+001 0.00000000E+000
6.42860000E+000 2.14290000E+001 0.00000000E+000
3.08250000E+000 2.73970000E+001 0.00000000E+000
6.03540000E+000 2.17130000E+001 0.00000000E+000
3.95690000E+000 2.46060000E+001 0.00000000E+000
5.64230000E+000 2.19980000E+001 0.00000000E+000
3.08630000E+000 2.68450000E+001 0.00000000E+000
4.41320000E+000 2.35660000E+001 0.00000000E+000
5.24900000E+000 2.22940000E+001 0.00000000E+000
3.51400000E+000 2.50710000E+001 0.00000000E+000
2.50000000E+000 3.00000000E+001 0.00000000E+000
2.52630000E+000 2.89930000E+001 0.00000000E+000
3.07870000E+000 2.61900000E+001 0.00000000E+000
4.85570000E+000 2.25900000E+001 0.00000000E+000
2.53890000E+000 2.79610000E+001 0.00000000E+000
6.07140000E+000 2.10710000E+001 0.00000000E+000
4.45250000E+000 2.28810000E+001 0.00000000E+000
3.07120000E+000 2.55350000E+001 0.00000000E+000
5.28770000E+000 2.15940000E+001 0.00000000E+000
3.55220000E+000 2.41680000E+001 0.00000000E+000
2.50580000E+000 2.68870000E+001 0.00000000E+000
4.04940000E+000 2.31710000E+001 0.00000000E+000
2.00000000E+000 3.00000000E+001 0.00000000E+000
2.00390000E+000 2.94960000E+001 0.00000000E+000
[...]
POINT_DATA     2655
SCALARS Ux float
LOOKUP_TABLE default
1.00000000E+000
9.99898218E-001
1.00000000E+000
9.99605748E-001
1.00000000E+000
9.99549353E-001
9.99786801E-001
9.99541269E-001
9.99101719E-001
1.00000000E+000
9.99265268E-001
9.98610125E-001
9.99431993E-001
9.98919627E-001
9.98404907E-001
1.00000000E+000
9.98378051E-001
9.97508035E-001
1.00000000E+000
9.97720506E-001
9.96963243E-001
9.98775616E-001
9.96410888E-001
1.00000000E+000
9.96864670E-001
9.95119441E-001
1.00000000E+000
9.95862602E-001
9.94557810E-001
9.97776762E-001
9.93628320E-001
1.00000000E+000
9.94427910E-001
9.91946033E-001
1.00000000E+000
9.91095581E-001
9.96186036E-001
9.90070166E-001
9.92767847E-001
1.00000000E+000
9.90015838E-001
9.88018626E-001
9.92482514E-001
1.00000000E+000
9.86273325E-001
9.87067352E-001
9.85773093E-001
9.96083820E-001
1.00000000E+000
9.92350367E-001
9.87383489E-001
9.90058033E-001
9.87848507E-001
9.84648919E-001
9.83364841E-001
1.00000000E+000
9.90917080E-001
9.86097869E-001
9.82074280E-001
9.81328185E-001
9.83042776E-001
9.80793412E-001
9.84235056E-001
1.00000000E+000
9.94588954E-001
9.86558295E-001
9.89311599E-001
9.79282085E-001
9.78071538E-001
9.81245806E-001
1.00000000E+000
9.85004278E-001
9.89636962E-001
9.76344718E-001
9.75704127E-001
9.77134147E-001
9.75213645E-001
9.78095201E-001
1.00000000E+000
9.79137221E-001
9.95094838E-001
9.80420967E-001
9.90152263E-001
9.73287720E-001
9.72237024E-001
9.74826256E-001
1.00000000E+000
9.80819787E-001
9.85801308E-001
9.76663448E-001
9.90102909E-001
9.70121376E-001
9.81366934E-001
9.70718738E-001
9.69593050E-001
9.71431659E-001
9.69159359E-001
1.00000000E+000
9.72038240E-001
9.95075515E-001
9.72780314E-001
9.77520300E-001
9.90103950E-001
9.81152097E-001
9.73147596E-001
9.66869907E-001
9.68005106E-001
9.85526427E-001
9.66002020E-001
1.00000000E+000
9.73613978E-001
9.69201918E-001
9.80961172E-001
9.89584815E-001
9.73371075E-001
9.63552541E-001
9.77027329E-001
9.63995922E-001
9.63148808E-001
9.64501396E-001
9.62786902E-001
9.70085823E-001
9.64983587E-001
1.00000000E+000
9.79925388E-001
9.65545415E-001
9.94511962E-001
9.73140871E-001
9.65983173E-001
9.88987601E-001
9.70458067E-001
9.83793818E-001
9.66496745E-001
9.60182928E-001
9.59538215E-001
9.67126957E-001
9.60891328E-001
9.71563285E-001
9.78741745E-001
9.67817975E-001
1.00000000E+000
9.61648679E-001
9.74169410E-001
9.87989107E-001
9.62766857E-001
9.65429881E-001
9.69799393E-001
9.56798663E-001
9.56544694E-001
9.57023128E-001
9.56280381E-001
9.57251047E-001
9.76783710E-001
9.57459971E-001
1.00000000E+000
9.66223612E-001
9.93391104E-001
9.57688294E-001
9.58253408E-001
9.86746194E-001
9.62877337E-001
9.60793988E-001
9.58904982E-001
9.80426662E-001
9.67058440E-001
9.53373911E-001
9.53039278E-001
9.74417520E-001
9.53506691E-001
1.00000000E+000
9.68918638E-001
9.53374094E-001
9.59070372E-001
9.85087115E-001
9.63897148E-001
9.49947778E-001
9.49991531E-001
9.49839691E-001
9.49930624E-001
9.53320350E-001
9.71311444E-001
9.59133145E-001
9.49800223E-001
1.00000000E+000
9.49487212E-001
9.91273553E-001
9.54865403E-001
9.82844929E-001
9.49084248E-001
9.59928097E-001
9.74719444E-001
9.50912223E-001
9.46707293E-001
9.46686988E-001
9.48384563E-001
9.67328276E-001
9.46191594E-001
1.00000000E+000
9.60875753E-001
9.47507732E-001
9.79640679E-001
9.50231078E-001
9.44905737E-001
9.55204427E-001
9.43665558E-001
9.43631143E-001
9.43480667E-001
9.62446833E-001
9.43156079E-001
1.00000000E+000
9.49681885E-001
9.42702736E-001
9.87906559E-001
9.41889467E-001
9.42022039E-001
9.74160184E-001
9.44898081E-001
9.42094337E-001
9.40903035E-001
9.49629889E-001
9.63720833E-001
9.40738507E-001
9.40453068E-001
9.56139620E-001
1.00000000E+000
9.39496287E-001
9.39122479E-001
9.40023695E-001
9.48806942E-001
9.37623365E-001
9.37062827E-001
9.66433789E-001
9.42849005E-001
9.38882304E-001
9.37946311E-001
9.37836619E-001
9.37570678E-001
9.35863242E-001
9.37099340E-001
9.47467840E-001
1.00000000E+000
9.36455103E-001
9.36930087E-001
9.35590242E-001
9.34467078E-001
9.68179121E-001
9.34539411E-001
9.35641057E-001
9.32622938E-001
9.35310422E-001
9.45495467E-001
9.33393766E-001
9.47502925E-001
9.34864065E-001
9.31955240E-001
9.31482071E-001
9.42071175E-001
9.37866383E-001
9.32099423E-001
9.33622231E-001
9.29642008E-001
9.31953889E-001
9.14722806E-001
9.31463662E-001
9.33809036E-001
9.35538204E-001
9.26858516E-001
9.27210924E-001
9.32847291E-001
9.32690273E-001
9.27797430E-001
9.32340413E-001
9.25038435E-001
9.27520404E-001
9.18535158E-001
9.31770145E-001
9.28390348E-001
9.30984440E-001
8.95841742E-001
9.21810943E-001
9.29914490E-001
9.22284577E-001
9.22616754E-001
9.13174727E-001
9.26101514E-001
9.28584682E-001
9.19293557E-001
9.18511627E-001
9.30574750E-001
9.16337559E-001
9.26843022E-001
9.30031798E-001
9.12554646E-001
9.17287135E-001
9.08228593E-001
8.80931047E-001
9.28580268E-001
8.97198674E-001
9.24743495E-001
9.12398949E-001
9.20905350E-001
9.15889322E-001
8.81610493E-001
9.03490242E-001
9.06872574E-001
9.17479891E-001
9.26042869E-001
9.08966726E-001
9.12421729E-001
9.28505283E-001
8.66108717E-001
9.28328994E-001
9.09348699E-001
9.27935684E-001
9.00152954E-001
8.82368189E-001
9.27289768E-001
9.26403287E-001
8.91314217E-001
9.22185439E-001
9.04524707E-001
9.20242057E-001
8.96871982E-001
9.25219650E-001
8.81273285E-001
8.99972255E-001
9.08327592E-001
8.52564313E-001
9.23767316E-001
8.68194395E-001
9.26652827E-001
9.13404494E-001
8.93595382E-001
9.00704876E-001
8.79464195E-001
9.26077035E-001
9.22029047E-001
8.54246969E-001
9.14452407E-001
8.86646251E-001
9.24511704E-001
9.20011169E-001
8.90593454E-001
8.78021148E-001
8.40163609E-001
9.15452543E-001
9.00948977E-001
8.55014680E-001
9.03629020E-001
9.21848061E-001
8.96507152E-001
9.18007458E-001
8.67236054E-001
9.07036859E-001
8.92366534E-001
9.15629644E-001
9.25026730E-001
9.24855597E-001
8.76211352E-001
9.24449615E-001
8.55457288E-001
8.86842928E-001
9.23782950E-001
9.15841457E-001
8.81226913E-001
9.18143501E-001
9.22863341E-001
8.28407501E-001
8.42692695E-001
9.07355469E-001
9.21661751E-001
8.73879500E-001
8.92924961E-001
8.55287084E-001
9.11709702E-001
9.20185101E-001
8.65523110E-001
8.83528409E-001
8.99719507E-001
8.29842753E-001
9.23637005E-001
9.18494400E-001
9.14003420E-001
8.55228699E-001
8.71611849E-001
9.23073235E-001
8.17030034E-001
8.30934374E-001
9.16531851E-001
9.21490950E-001
8.43626539E-001
8.85210264E-001
9.14542752E-001
8.88984140E-001
8.80051633E-001
8.54830259E-001
8.74937611E-001
8.92992472E-001
8.31815920E-001
8.68706182E-001
9.18793849E-001
9.12309270E-001
9.10346232E-001
8.61988163E-001
9.08171875E-001
8.95444777E-001
9.05278265E-001
9.22489986E-001
9.22337877E-001
8.06025805E-001
8.53558001E-001
8.19518097E-001
9.21939056E-001
9.02035615E-001
8.32335689E-001
9.15069750E-001
9.21282237E-001
8.77025838E-001
8.43905083E-001
9.20369705E-001
8.66046615E-001
8.85633927E-001
8.07383071E-001
9.19155611E-001
8.32861094E-001
8.52209534E-001
8.97197382E-001
9.10632134E-001
9.17656159E-001
8.08460354E-001
7.95321794E-001
9.15909329E-001
9.05797323E-001
8.21159356E-001
9.21592452E-001
8.68995282E-001
8.33109213E-001
8.63182370E-001
9.21058500E-001
8.73688526E-001
8.57146405E-001
9.13867276E-001
8.91855448E-001
8.78448656E-001
8.50075691E-001
8.98978049E-001
8.09487045E-001
9.19489699E-001
9.11674727E-001
8.42263971E-001
8.82405964E-001
8.32754669E-001
9.09200985E-001
9.16792984E-001
7.97691211E-001
7.84858407E-001
9.06611875E-001
8.10247783E-001
8.86017727E-001
8.60641486E-001
8.22237169E-001
8.48060525E-001
9.03752106E-001
8.70792300E-001
9.20947712E-001
9.20814270E-001
9.12983471E-001
9.20428126E-001
8.32254685E-001
7.86078853E-001
9.19776391E-001
9.00260057E-001
8.10969461E-001
8.89011319E-001
9.18857789E-001
8.79698847E-001
9.17659835E-001
8.96406036E-001
9.08212000E-001
8.52398030E-001
8.45905841E-001
7.87156209E-001
8.58050904E-001
7.99579685E-001
9.16178463E-001
8.38904376E-001
7.74581559E-001
8.63455436E-001
8.11500544E-001
8.30916633E-001
9.14416625E-001
8.68327771E-001
8.22013275E-001
8.91756486E-001
9.02449451E-001
7.88201200E-001
9.12357759E-001
9.20560139E-001
8.73175769E-001
9.20043531E-001
8.11689000E-001
9.10072551E-001
8.43924890E-001
9.18477198E-001
8.29608895E-001
8.55770038E-001
8.86670490E-001
8.77504344E-001
7.76807862E-001
7.89102510E-001
9.07492728E-001
7.64468050E-001
8.01057971E-001
8.95017381E-001
9.15814117E-001
9.04636000E-001
8.11782377E-001
8.66244727E-001
7.89986071E-001
7.65613859E-001
8.81399061E-001
9.01472108E-001
9.12023188E-001
8.35377934E-001
8.28061984E-001
8.41753305E-001
9.20430431E-001
8.47929391E-001
9.20301071E-001
8.20092452E-001
9.19911561E-001
9.19260643E-001
8.53656352E-001
8.97904046E-001
9.18345001E-001
8.11148241E-001
7.78791515E-001
7.66640300E-001
7.90733891E-001
8.85529423E-001
7.54489286E-001
9.17161142E-001
9.07113228E-001
8.59215803E-001
8.75742879E-001
8.01655181E-001
9.15703141E-001
8.94000354E-001
8.64738073E-001
8.26622651E-001
9.13965748E-001
7.67666136E-001
8.39808753E-001
7.91204815E-001
8.10499135E-001
9.11942162E-001
9.00995371E-001
8.89570207E-001
8.69832211E-001
8.51851329E-001
9.09625043E-001
7.68594978E-001
7.80500946E-001
7.56585454E-001
7.44628133E-001
7.91584742E-001
8.74875151E-001
9.07006900E-001
8.84770926E-001
8.24911319E-001
8.17353020E-001
8.31696644E-001
8.63584284E-001
8.09189530E-001
8.93523380E-001
8.38245333E-001
7.69518395E-001
9.04080902E-001
8.00777058E-001
7.45681830E-001
8.44518783E-001
8.79738413E-001
7.91325431E-001
8.50740538E-001
9.00839003E-001
7.58507980E-001
7.70342466E-001
7.46646632E-001
8.56910615E-001
7.81548799E-001
8.23357985E-001
7.34866356E-001
8.97274839E-001
8.07929679E-001
8.74358451E-001
8.84511030E-001
8.36903693E-001
8.62976135E-001
7.91022247E-001
7.47618182E-001
7.70972144E-001
8.93384130E-001
8.49900982E-001
8.68674437E-001
8.14671122E-001
8.89161237E-001
7.60286241E-001
8.06817584E-001
7.48522377E-001
8.22134694E-001
7.36806901E-001
7.98610436E-001
7.71552904E-001
8.29093583E-001
7.90088766E-001
7.25194354E-001
8.36156509E-001
8.74266572E-001
8.62673652E-001
8.84604949E-001
7.81178552E-001
8.42900380E-001
7.49430148E-001
7.26160246E-001
8.49611512E-001
7.71438487E-001
8.05821069E-001
8.79713670E-001
8.21079526E-001
7.89191420E-001
8.56272726E-001
7.50284698E-001
7.38666492E-001
7.61333224E-001
7.27036236E-001
8.35621028E-001
7.15601406E-001
8.74491702E-001
7.71320055E-001
8.62724204E-001
7.50741857E-001
7.27995486E-001
8.05064961E-001
8.49574768E-001
8.12841370E-001
7.96797495E-001
8.20649460E-001
7.88390749E-001
8.28121646E-001
8.68941169E-001
7.79760704E-001
8.35521324E-001
7.40293392E-001
7.28887249E-001
7.70769482E-001
7.51151890E-001
7.17324253E-001
8.42728794E-001
7.61350388E-001
7.06082392E-001
8.63070639E-001
8.04442501E-001
7.87671754E-001
7.29642526E-001
8.49872304E-001
8.20382408E-001
7.51265656E-001
7.70253286E-001
7.06923793E-001
8.35616662E-001
8.56888615E-001
7.30361058E-001
7.19115667E-001
7.41248440E-001
7.95795943E-001
7.07685294E-001
8.04191359E-001
7.87282550E-001
7.51377109E-001
8.12328741E-001
7.78431036E-001
8.20423554E-001
6.96631422E-001
8.50408166E-001
7.69655565E-001
8.28226943E-001
7.30888741E-001
7.08575482E-001
7.60628085E-001
8.35997881E-001
7.51177817E-001
7.86991680E-001
8.04085199E-001
8.43642157E-001
7.20624523E-001
7.31378408E-001
7.09427406E-001
7.69118742E-001
8.20620770E-001
7.41694977E-001
6.98137136E-001
6.87247108E-001
7.50965322E-001
7.10206268E-001
7.31716942E-001
8.36606421E-001
7.87028227E-001
7.95699520E-001
8.04383399E-001
7.78025104E-001
6.87979982E-001
8.12822586E-001
7.68986802E-001
8.21120293E-001
7.59774217E-001
7.21810458E-001
7.10937140E-001
6.99700475E-001
7.32017979E-001
7.50660953E-001
8.29317994E-001
6.88652199E-001
7.41402372E-001
7.87160821E-001
6.77927325E-001
7.11620366E-001
8.04814241E-001
7.68930081E-001
6.89374403E-001
7.31925034E-001
8.21794715E-001
7.50365155E-001
7.12252783E-001
7.22771635E-001
7.01158335E-001
6.90039601E-001
7.87670502E-001
7.78423463E-001
7.96629688E-001
7.69218939E-001
8.05384853E-001
6.79102150E-001
7.31834531E-001
7.59904303E-001
8.14054270E-001
7.12900385E-001
7.50551240E-001
6.68673729E-001
6.90758633E-001
7.41065396E-001
6.69176306E-001
7.88285875E-001
7.31749589E-001
7.13513506E-001
7.69579621E-001
7.02646031E-001
8.06114839E-001
6.91430157E-001
7.50796349E-001
7.22744806E-001
6.80284285E-001
6.69618291E-001
7.13586261E-001
6.59487390E-001
7.31701790E-001
6.92258147E-001
7.79717691E-001
7.70248361E-001
7.88948509E-001
7.60648287E-001
7.97994111E-001
6.70131962E-001
7.51179920E-001
7.04944214E-001
7.41491191E-001
7.13660115E-001
6.93054497E-001
7.31912954E-001
6.81364113E-001
6.70588016E-001
7.71000007E-001
6.60274847E-001
6.94728974E-001
7.22611023E-001
7.89709002E-001
7.51619256E-001
6.50372807E-001
7.13566075E-001
6.96392206E-001
6.70990499E-001
7.32138453E-001
7.05050840E-001
6.50724306E-001
7.71807089E-001
7.81275413E-001
7.62216700E-001
7.52439789E-001
6.96405806E-001
7.13487624E-001
7.42521714E-001
6.71342781E-001
6.60904308E-001
6.82675948E-001
6.51003852E-001
6.89735346E-001
7.32710715E-001
6.41333981E-001
7.23019087E-001
6.96420748E-001
7.72707806E-001
7.53328001E-001
7.13663881E-001
6.51178790E-001
6.71848337E-001
7.04578897E-001
7.33327944E-001
6.83080161E-001
6.96027200E-001
6.77691604E-001
6.51284559E-001
6.61203882E-001
6.41840352E-001
7.13850095E-001
6.88487386E-001
7.64020030E-001
7.54237355E-001
6.72315989E-001
7.44291447E-001
6.32378107E-001
6.81813412E-001
7.34210164E-001
7.24190015E-001
6.51232811E-001
6.95647607E-001
6.32610910E-001
7.14399302E-001
7.55223580E-001
6.80548025E-001
7.04801714E-001
7.35149741E-001
6.41979179E-001
6.51119385E-001
6.32758710E-001
6.95665650E-001
6.68442992E-001
6.61024713E-001
7.15007266E-001
6.23512118E-001
6.87035645E-001
6.79469318E-001
6.72543888E-001
6.32793910E-001
7.46329529E-001
7.36206634E-001
6.50470998E-001
6.95713185E-001
7.26058091E-001
7.15916734E-001
6.32745844E-001
6.41549022E-001
7.05783393E-001
6.23876002E-001
6.78401725E-001
6.64545262E-001
7.37346251E-001
6.96089527E-001
6.49776920E-001
6.14745865E-001
7.16894375E-001
6.32432002E-001
6.86618831E-001
6.14969038E-001
6.77930405E-001
6.69721052E-001
6.62781617E-001
6.96505346E-001
6.23777255E-001
6.55237268E-001
7.28281916E-001
6.32043347E-001
6.47874351E-001
6.15089979E-001
7.17998100E-001
6.40021171E-001
7.07606481E-001
6.77486633E-001
6.06089040E-001
6.97354166E-001
6.15044908E-001
6.31207586E-001
6.61021837E-001
6.87310960E-001
7.19142162E-001
6.45937680E-001
6.77754460E-001
6.14897921E-001
6.22991788E-001
6.98251191E-001
6.06469152E-001
6.68576841E-001
6.30307888E-001
6.60310461E-001
5.97554207E-001
6.14505695E-001
6.52004356E-001
6.78065062E-001
7.09932070E-001
6.44452924E-001
6.99423823E-001
5.97820696E-001
6.36677161E-001
6.89018605E-001
6.28891777E-001
6.06274789E-001
6.59626580E-001
6.14017560E-001
5.97963513E-001
6.78869400E-001
6.21228174E-001
6.42968427E-001
7.00653961E-001
6.68767673E-001
5.89153627E-001
5.97922234E-001
6.13151070E-001
6.59496351E-001
6.27431424E-001
6.79725908E-001
6.50514508E-001
6.05325217E-001
5.97758095E-001
6.42146223E-001
6.91310455E-001
5.89632251E-001
6.12200013E-001
6.33919745E-001
6.59414738E-001
6.80784902E-001
6.26145657E-001
5.97302479E-001
5.80902093E-001
6.70222929E-001
6.18363633E-001
6.41358730E-001
5.81247955E-001
6.10792662E-001
6.60001275E-001
5.96727196E-001
5.89445208E-001
6.81900531E-001
6.24856054E-001
6.50113438E-001
6.03347577E-001
5.81441362E-001
6.41023211E-001
6.60650439E-001
5.95705259E-001
6.09319696E-001
6.32077332E-001
5.72814313E-001
5.81428222E-001
6.23780627E-001
6.72423588E-001
5.88199958E-001
6.40746454E-001
5.81264423E-001
6.15567203E-001
6.61730490E-001
5.94565842E-001
6.07801290E-001
5.73439518E-001
6.51276951E-001
6.22741699E-001
6.00382824E-001
5.80607063E-001
6.41248815E-001
6.62874941E-001
5.64906555E-001
5.93073058E-001
6.31451860E-001
6.06259351E-001
5.65349345E-001
5.79794672E-001
5.73244058E-001
6.22371486E-001
5.85924103E-001
6.41825307E-001
5.65607023E-001
6.13527953E-001
5.91488829E-001
6.53250575E-001
5.78664508E-001
6.05237486E-001
5.65587904E-001
6.22076324E-001
5.57195257E-001
6.42643026E-001
5.97202704E-001
5.71684269E-001
6.32272201E-001
5.65386308E-001
5.89840841E-001
5.77385709E-001
6.04255335E-001
6.22298099E-001
5.82638734E-001
5.57845683E-001
6.43540930E-001
5.64651226E-001
6.12538136E-001
5.75690655E-001
5.88147603E-001
5.49697359E-001
6.03527644E-001
6.22618701E-001
5.63726176E-001
5.69068490E-001
5.57485824E-001
5.94901968E-001
5.50106367E-001
6.33737177E-001
5.73858845E-001
5.86800936E-001
5.50294208E-001
5.62405328E-001
6.02894097E-001
6.23167949E-001
5.79083369E-001
6.12836860E-001
5.50152726E-001
5.42429999E-001
5.71997958E-001
5.55736858E-001
5.85488599E-001
5.60891564E-001
6.02840011E-001
6.23823061E-001
5.49793011E-001
5.65132852E-001
5.93207131E-001
5.42953875E-001
5.70050806E-001
5.48983885E-001
5.58809420E-001
5.84381944E-001
6.02920348E-001
5.75979474E-001
5.35409536E-001
6.13784399E-001
5.47947708E-001
5.52633754E-001
5.68234327E-001
5.42404115E-001
5.56529020E-001
5.83389841E-001
6.03180278E-001
5.35760959E-001
5.60955788E-001
5.46384562E-001
5.92809885E-001
5.35859381E-001
5.66418488E-001
5.54311794E-001
5.82855766E-001
6.03592629E-001
5.35684182E-001
5.44577266E-001
5.40283669E-001
5.28652797E-001
5.73447170E-001
5.47970553E-001
5.35257252E-001
5.51944405E-001
5.64821669E-001
5.82502544E-001
5.42226964E-001
5.29049748E-001
5.34198213E-001
5.56767762E-001
5.93218153E-001
5.49569925E-001
5.63342867E-001
5.36580336E-001
5.82455035E-001
5.32871891E-001
5.22174389E-001
5.39611480E-001
5.28277558E-001
5.42931189E-001
5.72019948E-001
5.22486399E-001
5.31009921E-001
5.47115766E-001
5.62154531E-001
5.82616279E-001
5.22517445E-001
5.36974582E-001
5.53026741E-001
5.22192535E-001
5.28852681E-001
5.25755256E-001
5.31418534E-001
5.44792510E-001
5.15989757E-001
5.61245588E-001
5.34087896E-001
5.21583964E-001
5.37420166E-001
5.71763319E-001
5.26343306E-001
5.20410254E-001
5.16245436E-001
5.42558272E-001
5.60678095E-001
5.31082545E-001
5.21472163E-001
5.50178961E-001
5.23509164E-001
5.18935033E-001
5.25404229E-001
5.10110797E-001
5.40471721E-001
5.15151264E-001
5.27854955E-001
5.60550065E-001
5.10348026E-001
5.16843487E-001
5.20441154E-001
5.31709916E-001
5.10282369E-001
5.38680621E-001
5.24388750E-001
5.14416491E-001
5.15767289E-001
5.09814928E-001
5.17015262E-001
5.12339630E-001
5.18325637E-001
5.04550610E-001
5.48795472E-001
5.09041427E-001
5.20780070E-001
5.11596766E-001
5.37362922E-001
5.13299469E-001
5.07727739E-001
5.04572168E-001
5.26587530E-001
5.08398529E-001
5.07613962E-001
5.08740800E-001
5.17183922E-001
5.06089167E-001
5.36350979E-001
5.09171200E-001
4.99318302E-001
5.09933755E-001
5.03232209E-001
5.04875107E-001
4.99418607E-001
5.03821823E-001
5.13871719E-001
5.04486808E-001
4.99202927E-001
5.01366236E-001
5.00906531E-001
5.01192919E-001
5.23520921E-001
4.98649872E-001
4.99845449E-001
5.00107706E-001
5.10022555E-001
4.99232185E-001
4.94423920E-001
4.97777123E-001
4.98183693E-001
4.96318131E-001
4.99436516E-001
4.96311766E-001
4.94205286E-001
4.93367355E-001
5.09217724E-001
4.94767878E-001
4.93404349E-001
4.95115520E-001
4.91153429E-001
4.94508896E-001
4.88654554E-001
4.89873863E-001
4.92635277E-001
4.90846115E-001
4.86497524E-001
4.92167208E-001
4.89881306E-001
4.85423340E-001
4.90330646E-001
4.89561355E-001
4.88459146E-001
4.86440095E-001
4.89456686E-001
4.77078629E-001
4.83066714E-001
4.88878555E-001
4.89263414E-001
4.78861369E-001
4.73893906E-001
4.85675211E-001
4.87868204E-001
4.86250046E-001
4.81366360E-001
4.63384851E-001
4.71855998E-001
4.86314196E-001
4.85263733E-001
4.82637287E-001
4.79896588E-001
4.84172806E-001
4.75688365E-001
4.84421255E-001
4.69539259E-001
4.36139226E-001
4.63428828E-001
4.81832028E-001
4.78520240E-001
4.83453800E-001
4.49584407E-001
4.82051999E-001
4.81752070E-001
4.68908085E-001
4.52832955E-001
4.17092696E-001
4.81334838E-001
4.77377929E-001
4.73943068E-001
4.79326001E-001
4.68729361E-001
4.80547509E-001
4.79945335E-001
4.53967525E-001
4.61311223E-001
4.78348811E-001
4.40061007E-001
4.76150961E-001
4.02625049E-001
4.79427051E-001
4.68506430E-001