# vtk DataFile Version 1.0
ECM-CELL DIFFUSION-MECHANICS
ASCII

DATASET UNSTRUCTURED_GRID
POINTS      121 float
0.00000000E+000 1.00000000E+000 0.00000000E+000
1.00000000E-001 1.00000000E+000 0.00000000E+000
0.00000000E+000 9.00000000E-001 0.00000000E+000
9.83870000E-002 9.01290000E-001 0.00000000E+000
2.00000000E-001 1.00000000E+000 0.00000000E+000
0.00000000E+000 8.00000000E-001 0.00000000E+000
9.81920000E-002 8.01820000E-001 0.00000000E+000
1.98510000E-001 9.01480000E-001 0.00000000E+000
1.97620000E-001 8.02840000E-001 0.00000000E+000
3.00000000E-001 1.00000000E+000 0.00000000E+000
0.00000000E+000 7.00000000E-001 0.00000000E+000
2.98030000E-001 9.01810000E-001 0.00000000E+000
9.94490000E-002 7.02110000E-001 0.00000000E+000
2.98160000E-001 8.03060000E-001 0.00000000E+000
1.99560000E-001 7.02860000E-001 0.00000000E+000
4.00000000E-001 1.00000000E+000 0.00000000E+000
0.00000000E+000 6.00000000E-001 0.00000000E+000
3.97840000E-001 9.02170000E-001 0.00000000E+000
1.00600000E-001 6.01630000E-001 0.00000000E+000
2.99590000E-001 7.03030000E-001 0.00000000E+000
3.98680000E-001 8.02590000E-001 0.00000000E+000
2.01250000E-001 6.02140000E-001 0.00000000E+000
3.99490000E-001 7.02620000E-001 0.00000000E+000
3.01220000E-001 6.01590000E-001 0.00000000E+000
5.00000000E-001 1.00000000E+000 0.00000000E+000
0.00000000E+000 5.00000000E-001 0.00000000E+000
4.98480000E-001 9.02060000E-001 0.00000000E+000
1.01390000E-001 5.00960000E-001 0.00000000E+000
4.99230000E-001 8.02520000E-001 0.00000000E+000
2.03090000E-001 5.01310000E-001 0.00000000E+000
4.00940000E-001 6.00820000E-001 0.00000000E+000
5.00040000E-001 7.02060000E-001 0.00000000E+000
3.02350000E-001 4.99230000E-001 0.00000000E+000
6.00000000E-001 1.00000000E+000 0.00000000E+000
0.00000000E+000 4.00000000E-001 0.00000000E+000
5.99620000E-001 9.02230000E-001 0.00000000E+000
1.01630000E-001 3.99230000E-001 0.00000000E+000
6.00490000E-001 8.02610000E-001 0.00000000E+000
2.02760000E-001 3.99030000E-001 0.00000000E+000
5.01260000E-001 5.99810000E-001 0.00000000E+000
4.01940000E-001 4.96920000E-001 0.00000000E+000
6.01840000E-001 7.01090000E-001 0.00000000E+000
3.03170000E-001 3.97110000E-001 0.00000000E+000
7.00000000E-001 1.00000000E+000 0.00000000E+000
0.00000000E+000 3.00000000E-001 0.00000000E+000
1.01260000E-001 3.00280000E-001 0.00000000E+000
7.00810000E-001 9.01560000E-001 0.00000000E+000
5.02730000E-001 4.95220000E-001 0.00000000E+000
6.03330000E-001 5.97490000E-001 0.00000000E+000
4.03440000E-001 3.94170000E-001 0.00000000E+000
7.01990000E-001 8.02290000E-001 0.00000000E+000
2.03160000E-001 2.98460000E-001 0.00000000E+000
7.04120000E-001 7.00900000E-001 0.00000000E+000
3.03950000E-001 2.96330000E-001 0.00000000E+000
6.04300000E-001 4.93430000E-001 0.00000000E+000
5.04770000E-001 3.92540000E-001 0.00000000E+000
8.00000000E-001 1.00000000E+000 0.00000000E+000
0.00000000E+000 2.00000000E-001 0.00000000E+000
1.01160000E-001 1.99990000E-001 0.00000000E+000
8.01640000E-001 9.01730000E-001 0.00000000E+000
7.05820000E-001 5.96880000E-001 0.00000000E+000
4.04980000E-001 2.93370000E-001 0.00000000E+000
2.02330000E-001 1.98900000E-001 0.00000000E+000
8.02590000E-001 8.01920000E-001 0.00000000E+000
3.04270000E-001 1.97800000E-001 0.00000000E+000
6.06130000E-001 3.92030000E-001 0.00000000E+000
8.04670000E-001 7.00780000E-001 0.00000000E+000
7.06310000E-001 4.92830000E-001 0.00000000E+000
5.06580000E-001 2.91020000E-001 0.00000000E+000
9.00000000E-001 1.00000000E+000 0.00000000E+000
0.00000000E+000 1.00000000E-001 0.00000000E+000
4.05360000E-001 1.95200000E-001 0.00000000E+000
8.07100000E-001 5.96900000E-001 0.00000000E+000
1.01090000E-001 1.00240000E-001 0.00000000E+000
9.01670000E-001 9.01370000E-001 0.00000000E+000
2.00750000E-001 9.93440000E-002 0.00000000E+000
9.02210000E-001 8.01380000E-001 0.00000000E+000
7.07140000E-001 3.91710000E-001 0.00000000E+000
6.08300000E-001 2.90430000E-001 0.00000000E+000
3.02540000E-001 9.87160000E-002 0.00000000E+000
9.02830000E-001 7.00110000E-001 0.00000000E+000
5.06610000E-001 1.93590000E-001 0.00000000E+000
8.07330000E-001 4.93890000E-001 0.00000000E+000
4.04070000E-001 9.73430000E-002 0.00000000E+000
9.04460000E-001 5.98290000E-001 0.00000000E+000
1.00000000E+000 1.00000000E+000 0.00000000E+000
0.00000000E+000 0.00000000E+000 0.00000000E+000
7.08650000E-001 2.91330000E-001 0.00000000E+000
1.00000000E-001 0.00000000E+000 0.00000000E+000
1.00000000E+000 9.00000000E-001 0.00000000E+000
8.07290000E-001 3.92940000E-001 0.00000000E+000
6.09640000E-001 1.91830000E-001 0.00000000E+000
1.00000000E+000 8.00000000E-001 0.00000000E+000
2.00000000E-001 0.00000000E+000 0.00000000E+000
9.04210000E-001 4.96980000E-001 0.00000000E+000
5.04870000E-001 9.63300000E-002 0.00000000E+000
1.00000000E+000 7.00000000E-001 0.00000000E+000
3.00000000E-001 0.00000000E+000 0.00000000E+000
8.08850000E-001 2.92440000E-001 0.00000000E+000
7.09510000E-001 1.92780000E-001 0.00000000E+000
1.00000000E+000 6.00000000E-001 0.00000000E+000
4.00000000E-001 0.00000000E+000 0.00000000E+000
6.05310000E-001 9.61380000E-002 0.00000000E+000
9.05050000E-001 3.95760000E-001 0.00000000E+000
5.00000000E-001 0.00000000E+000 0.00000000E+000
1.00000000E+000 5.00000000E-001 0.00000000E+000
8.08230000E-001 1.94460000E-001 0.00000000E+000
7.05050000E-001 9.66320000E-002 0.00000000E+000
9.05330000E-001 2.95960000E-001 0.00000000E+000
1.00000000E+000 4.00000000E-001 0.00000000E+000
6.00000000E-001 0.00000000E+000 0.00000000E+000
8.04100000E-001 9.74750000E-002 0.00000000E+000
9.04170000E-001 1.97310000E-001 0.00000000E+000
1.00000000E+000 3.00000000E-001 0.00000000E+000
7.00000000E-001 0.00000000E+000 0.00000000E+000
9.03120000E-001 9.88060000E-002 0.00000000E+000
1.00000000E+000 2.00000000E-001 0.00000000E+000
8.00000000E-001 0.00000000E+000 0.00000000E+000
1.00000000E+000 1.00000000E-001 0.00000000E+000
9.00000000E-001 0.00000000E+000 0.00000000E+000
1.00000000E+000 0.00000000E+000 0.00000000E+000

CELLS      100      500
   4         119         120         118         115  
   4          89          85          69          74  
   4           1           0           2           3  
   4          70          86          88          73  
   4         117         119         115         111  
   4          92          89          74          76  
   4           4           1           3           7  
   4          57          70          73          58  
   4         114         117         111         107  
   4         118         116         112         115  
   4          96          92          76          80  
   4          69          56          59          74  
   4           9           4           7          11  
   4           2           5           6           3  
   4          44          57          58          45  
   4          88          93          75          73  
   4         110         114         107         102  
   4         116         113         108         112  
   4         100          96          80          84  
   4          56          43          46          59  
   4          15           9          11          17  
   4           5          10          12           6  
   4          34          44          45          36  
   4          93          97          79          75  
   4         104         110         102          95  
   4         113         109         103         108  
   4         105         100          84          94  
   4         109         105          94         103  
   4          43          33          35          46  
   4          24          15          17          26  
   4          33          24          26          35  
   4          10          16          18          12  
   4          25          34          36          27  
   4          16          25          27          18  
   4          97         101          83          79  
   4         101         104          95          83  
   4          76          74          59          63  
   4         115         112         106         111  
   4         107         111         106          99  
   4          80          76          63          66  
   4          84          80          66          72  
   4          94          84          72          82  
   4         103          94          82          90  
   4           3           6           8           7  
   4         112         108          98         106  
   4         108         103          90          98  
   4          58          73          75          62  
   4          75          79          64          62  
   4          45          58          62          51  
   4          11           7           8          13  
   4          59          46          50          63  
   4          17          11          13          20  
   4          46          35          37          50  
   4          26          17          20          28  
   4          35          26          28          37  
   4          79          83          71          64  
   4          83          95          81          71  
   4         102         107          99          91  
   4          95         102          91          81  
   4          36          45          51          38  
   4          27          36          38          29  
   4          18          27          29          21  
   4           6          12          14           8  
   4          12          18          21          14  
   4           8          14          19          13  
   4          20          13          19          22  
   4          14          21          23          19  
   4          21          29          32          23  
   4          29          38          42          32  
   4          38          51          53          42  
   4          51          62          64          53  
   4          28          20          22          31  
   4          37          28          31          41  
   4          99         106          98          87  
   4          64          71          61          53  
   4          71          81          68          61  
   4          91          99          87          78  
   4          81          91          78          68  
   4          66          63          50          52  
   4          50          37          41          52  
   4          72          66          52          60  
   4          82          72          60          67  
   4          90          82          67          77  
   4          98          90          77          87  
   4          78          87          77          65  
   4          77          67          54          65  
   4          42          53          61          49  
   4          68          78          65          55  
   4          61          68          55          49  
   4          22          19          23          30  
   4          32          42          49          40  
   4          23          32          40          30  
   4          67          60          48          54  
   4          60          52          41          48  
   4          41          31          39          48  
   4          31          22          30          39  
   4          49          55          47          40  
   4          30          40          47          39  
   4          48          39          47          54  
   4          47          55          65          54  

CELL_TYPES      100
    9     9     9     9     9     9     9     9     9     9     9     9     9     9     9     9     9     9     9     9     9     9     9     9     9     9     9     9     9     9     9     9     9     9     9     9     9     9     9     9     9     9     9     9     9     9     9     9     9     9     9     9     9     9     9     9     9     9     9     9     9     9     9     9     9     9     9     9     9     9     9     9     9     9     9     9     9     9     9     9     9     9     9     9     9     9     9     9     9     9     9     9     9     9     9     9     9     9     9     9 
POINT_DATA      121
SCALARS Ux float
LOOKUP_TABLE default
1.00000000E+000
8.94976838E-001
1.00000000E+000
9.01608758E-001
7.92652154E-001
1.00000000E+000
9.02375979E-001
7.81720831E-001
8.16927454E-001
6.92996003E-001
1.00000000E+000
6.96385105E-001
9.04740009E-001
6.84814194E-001
8.05857368E-001
5.98097675E-001
1.00000000E+000
5.99081950E-001
9.03322047E-001
7.05822433E-001
6.00053681E-001
8.07551315E-001
6.01876872E-001
7.22537394E-001
5.03006062E-001
1.00000000E+000
5.04359613E-001
9.02763665E-001
5.04483521E-001
8.06382308E-001
6.06734224E-001
5.01466775E-001
7.09897980E-001
4.07932268E-001
1.00000000E+000
4.09325671E-001
9.02511947E-001
4.05300170E-001
8.05459043E-001
4.84841839E-001
6.19614860E-001
4.13199568E-001
7.05817223E-001
3.13916652E-001
1.00000000E+000
9.03483988E-001
3.10082828E-001
5.03062891E-001
3.88902267E-001
6.05485666E-001
3.21261964E-001
8.02004976E-001
2.76240274E-001
7.15021289E-001
3.63337938E-001
5.05442279E-001
2.15814815E-001
1.00000000E+000
9.00336482E-001
2.26539611E-001
2.84371139E-001
5.80215574E-001
8.15334702E-001
1.79856105E-001
6.73343400E-001
4.01157822E-001
1.90138158E-001
2.81838749E-001
4.94121554E-001
1.32737310E-001
1.00000000E+000
5.89143541E-001
1.84665283E-001
9.11796640E-001
8.56177627E-002
7.71308328E-001
9.64206118E-002
2.66366830E-001
3.92973918E-001
6.87119341E-001
9.27966262E-002
4.89975604E-001
1.82958911E-001
5.87378005E-001
9.15498628E-002
-5.55111512E-017
1.00000000E+000
3.05863879E-001
8.66531883E-001
4.16333634E-017
1.84428316E-001
3.92867490E-001
2.63677968E-016
7.84626225E-001
9.14436458E-002
4.92395185E-001
-1.11022302E-016
6.86580220E-001
1.71777028E-001
2.94336030E-001
1.80411242E-016
5.92534856E-001
3.96067655E-001
8.93932683E-002
4.96823650E-001
1.45716772E-016
1.95553906E-001
3.00276989E-001
9.06440597E-002
7.63278329E-017
4.01155062E-001
2.13275284E-001
9.56541618E-002
-1.24900090E-016
3.05764613E-001
1.00128343E-001
2.28983499E-016
2.06939178E-001
2.01227923E-016
1.05007782E-001
1.11022302E-016
