# vtk DataFile Version 1.0
ECM-CELL DIFFUSION-MECHANICS
ASCII

DATASET UNSTRUCTURED_GRID
POINTS      908 float
1.50000000E+001 3.00000000E+001 0.00000000E+000
1.40000000E+001 3.00000000E+001 0.00000000E+000
1.42860000E+001 2.92860000E+001 0.00000000E+000
1.32860000E+001 2.92860000E+001 0.00000000E+000
1.30000000E+001 3.00000000E+001 0.00000000E+000
1.35710000E+001 2.85710000E+001 0.00000000E+000
1.25710000E+001 2.85710000E+001 0.00000000E+000
1.20000000E+001 3.00000000E+001 0.00000000E+000
1.28570000E+001 2.78570000E+001 0.00000000E+000
1.15710000E+001 2.85710000E+001 0.00000000E+000
1.10000000E+001 3.00000000E+001 0.00000000E+000
1.21430000E+001 2.71430000E+001 0.00000000E+000
1.10710000E+001 2.77050000E+001 0.00000000E+000
1.05000000E+001 2.91340000E+001 0.00000000E+000
1.00000000E+001 3.00000000E+001 0.00000000E+000
1.14290000E+001 2.64290000E+001 0.00000000E+000
1.00000000E+001 2.82680000E+001 0.00000000E+000
1.03570000E+001 2.69910000E+001 0.00000000E+000
9.50000000E+000 2.91340000E+001 0.00000000E+000
9.00000000E+000 3.00000000E+001 0.00000000E+000
1.07140000E+001 2.57140000E+001 0.00000000E+000
9.16730000E+000 2.83200000E+001 0.00000000E+000
9.50000000E+000 2.74020000E+001 0.00000000E+000
8.66730000E+000 2.91860000E+001 0.00000000E+000
9.85710000E+000 2.61250000E+001 0.00000000E+000
8.66730000E+000 2.74540000E+001 0.00000000E+000
8.33460000E+000 2.83710000E+001 0.00000000E+000
9.00000000E+000 2.65360000E+001 0.00000000E+000
8.00000000E+000 3.00000000E+001 0.00000000E+000
1.00000000E+001 2.50000000E+001 0.00000000E+000
7.66730000E+000 2.91860000E+001 0.00000000E+000
9.14290000E+000 2.54110000E+001 0.00000000E+000
7.50370000E+000 2.77120000E+001 0.00000000E+000
7.83640000E+000 2.67950000E+001 0.00000000E+000
7.00000000E+000 3.00000000E+001 0.00000000E+000
9.28570000E+000 2.42860000E+001 0.00000000E+000
7.88940000E+000 2.57950000E+001 0.00000000E+000
6.83640000E+000 2.85270000E+001 0.00000000E+000
8.03230000E+000 2.46700000E+001 0.00000000E+000
6.67280000E+000 2.70530000E+001 0.00000000E+000
6.00000000E+000 3.00000000E+001 0.00000000E+000
5.99030000E+000 2.91570000E+001 0.00000000E+000
8.57140000E+000 2.35710000E+001 0.00000000E+000
6.72580000E+000 2.60540000E+001 0.00000000E+000
5.82670000E+000 2.76830000E+001 0.00000000E+000
6.77880000E+000 2.50540000E+001 0.00000000E+000
7.31800000E+000 2.39560000E+001 0.00000000E+000
5.83470000E+000 2.65080000E+001 0.00000000E+000
5.00000000E+000 3.00000000E+001 0.00000000E+000
4.99030000E+000 2.91570000E+001 0.00000000E+000
7.85710000E+000 2.28570000E+001 0.00000000E+000
5.88780000E+000 2.55080000E+001 0.00000000E+000
4.98060000E+000 2.83140000E+001 0.00000000E+000
4.98860000E+000 2.71380000E+001 0.00000000E+000
6.14900000E+000 2.44060000E+001 0.00000000E+000
6.68820000E+000 2.33070000E+001 0.00000000E+000
4.99670000E+000 2.59620000E+001 0.00000000E+000
4.00000000E+000 3.00000000E+001 0.00000000E+000
5.25790000E+000 2.48600000E+001 0.00000000E+000
3.99030000E+000 2.91570000E+001 0.00000000E+000
7.14290000E+000 2.21430000E+001 0.00000000E+000
4.09740000E+000 2.75910000E+001 0.00000000E+000
5.51920000E+000 2.37580000E+001 0.00000000E+000
4.10540000E+000 2.64150000E+001 0.00000000E+000
5.97390000E+000 2.25930000E+001 0.00000000E+000
4.15830000E+000 2.54180000E+001 0.00000000E+000
3.10710000E+000 2.84340000E+001 0.00000000E+000
3.00000000E+000 3.00000000E+001 0.00000000E+000
4.41960000E+000 2.43150000E+001 0.00000000E+000
6.42860000E+000 2.14290000E+001 0.00000000E+000
3.21410000E+000 2.68670000E+001 0.00000000E+000
3.26710000E+000 2.58700000E+001 0.00000000E+000
4.62640000E+000 2.30640000E+001 0.00000000E+000
3.32000000E+000 2.48730000E+001 0.00000000E+000
5.08110000E+000 2.19000000E+001 0.00000000E+000
2.15090000E+000 2.88760000E+001 0.00000000E+000
2.00000000E+000 3.00000000E+001 0.00000000E+000
2.25800000E+000 2.73100000E+001 0.00000000E+000
3.52690000E+000 2.36220000E+001 0.00000000E+000
5.71430000E+000 2.07140000E+001 0.00000000E+000
2.38000000E+000 2.63190000E+001 0.00000000E+000
2.43290000E+000 2.53210000E+001 0.00000000E+000
3.73370000E+000 2.23710000E+001 0.00000000E+000
2.47680000E+000 2.43470000E+001 0.00000000E+000
4.36690000E+000 2.11850000E+001 0.00000000E+000
1.30180000E+000 2.77520000E+001 0.00000000E+000
1.15090000E+000 2.88760000E+001 0.00000000E+000
1.42380000E+000 2.67610000E+001 0.00000000E+000
1.00000000E+000 3.00000000E+001 0.00000000E+000
1.54580000E+000 2.57700000E+001 0.00000000E+000
2.68360000E+000 2.30960000E+001 0.00000000E+000
5.00000000E+000 2.00000000E+001 0.00000000E+000
1.58970000E+000 2.47950000E+001 0.00000000E+000
3.37280000E+000 2.15240000E+001 0.00000000E+000
5.69560000E-001 2.81340000E+001 0.00000000E+000
4.18670000E-001 2.92580000E+001 0.00000000E+000
2.68700000E+000 2.21010000E+001 0.00000000E+000
4.00600000E+000 2.03390000E+001 0.00000000E+000
1.63350000E+000 2.38210000E+001 0.00000000E+000
5.07760000E-001 2.71460000E+001 0.00000000E+000
5.00000000E+000 1.90000000E+001 0.00000000E+000
6.29790000E-001 2.61550000E+001 0.00000000E+000
-1.77640000E-015 3.00000000E+001 0.00000000E+000
7.74950000E-001 2.51720000E+001 0.00000000E+000
4.19640000E+000 1.94320000E+001 0.00000000E+000
1.63700000E+000 2.28260000E+001 0.00000000E+000
3.01190000E+000 2.06780000E+001 0.00000000E+000
-1.62660000E-001 2.85160000E+001 0.00000000E+000
8.18800000E-001 2.41980000E+001 0.00000000E+000
2.32610000E+000 2.12540000E+001 0.00000000E+000
-2.24470000E-001 2.75280000E+001 0.00000000E+000
-5.81330000E-001 2.92580000E+001 0.00000000E+000
3.20240000E+000 1.97710000E+001 0.00000000E+000
5.00000000E+000 1.80000000E+001 0.00000000E+000
1.64040000E+000 2.18300000E+001 0.00000000E+000
-2.86270000E-001 2.65410000E+001 0.00000000E+000
-1.41100000E-001 2.55580000E+001 0.00000000E+000
7.23650000E-001 2.32140000E+001 0.00000000E+000
4.19640000E+000 1.84320000E+001 0.00000000E+000
4.06420000E-003 2.45740000E+001 0.00000000E+000
2.34720000E+000 2.02840000E+001 0.00000000E+000
-1.00000000E+000 3.00000000E+001 0.00000000E+000
3.39280000E+000 1.88640000E+001 0.00000000E+000
1.66140000E+000 2.08610000E+001 0.00000000E+000
-1.12490000E+000 2.81960000E+001 0.00000000E+000
7.27070000E-001 2.22190000E+001 0.00000000E+000
2.53760000E+000 1.93780000E+001 0.00000000E+000
-9.10790000E-002 2.35910000E+001 0.00000000E+000
5.00000000E+000 1.70000000E+001 0.00000000E+000
-1.18670000E+000 2.72080000E+001 0.00000000E+000
-9.73980000E-001 2.61060000E+001 0.00000000E+000
-8.28820000E-001 2.51220000E+001 0.00000000E+000
-1.54360000E+000 2.89380000E+001 0.00000000E+000
4.14700000E+000 1.74440000E+001 0.00000000E+000
8.72770000E-001 2.12370000E+001 0.00000000E+000
1.68240000E+000 1.98910000E+001 0.00000000E+000
3.34350000E+000 1.78760000E+001 0.00000000E+000
-1.86220000E-001 2.26080000E+001 0.00000000E+000
-8.76430000E-001 2.41270000E+001 0.00000000E+000
-2.00000000E+000 3.00000000E+001 0.00000000E+000
2.52990000E+000 1.83800000E+001 0.00000000E+000
8.93800000E-001 2.02680000E+001 0.00000000E+000
-1.87440000E+000 2.67730000E+001 0.00000000E+000
5.00000000E+000 1.60000000E+001 0.00000000E+000
-4.05250000E-002 2.16260000E+001 0.00000000E+000
-1.66170000E+000 2.56700000E+001 0.00000000E+000
-2.08720000E+000 2.78760000E+001 0.00000000E+000
1.67470000E+000 1.88930000E+001 0.00000000E+000
4.14700000E+000 1.64440000E+001 0.00000000E+000
-9.71570000E-001 2.31430000E+001 0.00000000E+000
-1.70930000E+000 2.46750000E+001 0.00000000E+000
-2.54360000E+000 2.89380000E+001 0.00000000E+000
3.29410000E+000 1.68880000E+001 0.00000000E+000
1.05170000E-001 2.06440000E+001 0.00000000E+000
-8.55030000E-001 2.22000000E+001 0.00000000E+000
2.48060000E+000 1.73920000E+001 0.00000000E+000
7.60080000E-001 1.92910000E+001 0.00000000E+000
-1.75690000E+000 2.36790000E+001 0.00000000E+000
-7.09330000E-001 2.12180000E+001 0.00000000E+000
-3.00000000E+000 3.00000000E+001 0.00000000E+000
4.33010000E+000 1.55000000E+001 0.00000000E+000
1.66700000E+000 1.78960000E+001 0.00000000E+000
-2.58060000E+000 2.60370000E+001 0.00000000E+000
-2.79340000E+000 2.71400000E+001 0.00000000E+000
5.00000000E+000 1.50000000E+001 0.00000000E+000
-1.64040000E+000 2.27350000E+001 0.00000000E+000
3.47720000E+000 1.59440000E+001 0.00000000E+000
-2.85470000E-002 1.96680000E+001 0.00000000E+000
-2.61650000E+000 2.50880000E+001 0.00000000E+000
2.61110000E+000 1.64440000E+001 0.00000000E+000
7.52390000E-001 1.82940000E+001 0.00000000E+000
-1.52380000E+000 2.17920000E+001 0.00000000E+000
1.79760000E+000 1.69480000E+001 0.00000000E+000
-7.86590000E-001 2.02250000E+001 0.00000000E+000
-2.66410000E+000 2.40920000E+001 0.00000000E+000
-3.54360000E+000 2.79380000E+001 0.00000000E+000
3.66030000E+000 1.50000000E+001 0.00000000E+000
4.33010000E+000 1.45000000E+001 0.00000000E+000
-3.49950000E+000 2.64040000E+001 0.00000000E+000
-2.55810000E+000 2.31010000E+001 0.00000000E+000
5.00000000E+000 1.40000000E+001 0.00000000E+000
-1.62270000E-001 1.86910000E+001 0.00000000E+000
2.79420000E+000 1.55000000E+001 0.00000000E+000
-1.60110000E+000 2.07990000E+001 0.00000000E+000
8.74410000E-001 1.73040000E+001 0.00000000E+000
-4.00000000E+000 3.00000000E+001 0.00000000E+000
-4.00000000E+000 2.90000000E+001 0.00000000E+000
-3.53540000E+000 2.54550000E+001 0.00000000E+000
-2.44160000E+000 2.21580000E+001 0.00000000E+000
1.92820000E+000 1.60000000E+001 0.00000000E+000
-9.20310000E-001 1.92480000E+001 0.00000000E+000
-3.57130000E+000 2.45060000E+001 0.00000000E+000
-4.02470000E-002 1.77020000E+001 0.00000000E+000
-4.24980000E+000 2.72020000E+001 0.00000000E+000
1.00500000E+000 1.63560000E+001 0.00000000E+000
-1.67830000E+000 1.98050000E+001 0.00000000E+000
-3.46530000E+000 2.35140000E+001 0.00000000E+000
-2.51060000E+000 2.12060000E+001 0.00000000E+000
3.66030000E+000 1.40000000E+001 0.00000000E+000
-4.24980000E+000 2.62020000E+001 0.00000000E+000
-7.93430000E-001 1.83160000E+001 0.00000000E+000
4.33010000E+000 1.35000000E+001 0.00000000E+000
5.00000000E+000 1.30000000E+001 0.00000000E+000
2.79420000E+000 1.45000000E+001 0.00000000E+000
[...]
POINT_DATA      908
SCALARS Ux float
LOOKUP_TABLE default
1.00000000E+000
9.99677610E-001
1.00000000E+000
9.98968337E-001
9.98414424E-001
1.00000000E+000
9.98346396E-001
9.96556217E-001
1.00000000E+000
9.95993780E-001
9.93634897E-001
1.00000000E+000
9.95964580E-001
9.92130185E-001
9.90084119E-001
1.00000000E+000
9.91124283E-001
9.94784025E-001
9.88155411E-001
9.85655956E-001
1.00000000E+000
9.87509005E-001
9.90369882E-001
9.84250322E-001
9.95290249E-001
9.86214990E-001
9.83273414E-001
9.90007866E-001
9.80718867E-001
1.00000000E+000
9.79013009E-001
9.94155819E-001
9.79497531E-001
9.83063092E-001
9.75068735E-001
1.00000000E+000
9.85950878E-001
9.74528083E-001
9.90943490E-001
9.75101682E-001
9.69035400E-001
9.69075382E-001
1.00000000E+000
9.77102954E-001
9.68651005E-001
9.80215042E-001
9.88679257E-001
9.69965846E-001
9.62556518E-001
9.62528622E-001
1.00000000E+000
9.71748169E-001
9.62629313E-001
9.63046270E-001
9.76965191E-001
9.86826513E-001
9.63795107E-001
9.55990186E-001
9.67168268E-001
9.55882696E-001
1.00000000E+000
9.56594859E-001
9.72431179E-001
9.56350409E-001
9.82302561E-001
9.56881778E-001
9.49978710E-001
9.49539386E-001
9.59180313E-001
1.00000000E+000
9.49743938E-001
9.49292756E-001
9.63447378E-001
9.48526818E-001
9.73178215E-001
9.44063437E-001
9.43300386E-001
9.43277398E-001
9.48750324E-001
1.00000000E+000
9.42890998E-001
9.41205223E-001
9.48828687E-001
9.39302202E-001
9.57694529E-001
9.37779528E-001
9.38143923E-001
9.36967365E-001
9.37651992E-001
9.35451542E-001
9.36462501E-001
1.00000000E+000
9.32851316E-001
9.39720635E-001
9.34061955E-001
9.34410070E-001
9.31406535E-001
9.41916320E-001
9.29088595E-001
9.32101665E-001
9.14448095E-001
9.30191341E-001
9.32449984E-001
9.27981682E-001
9.23563184E-001
9.23727519E-001
9.22437347E-001
9.30880351E-001
9.23798028E-001
9.18778849E-001
9.29094845E-001
9.29691612E-001
9.13820888E-001
8.78583234E-001
9.15821323E-001
9.26209505E-001
9.23693670E-001
9.17453427E-001
8.91707940E-001
9.20053696E-001
9.06802788E-001
9.28146041E-001
8.93077906E-001
9.06059187E-001
9.26133947E-001
9.09676745E-001
8.94767926E-001
9.13924734E-001
8.51385346E-001
9.23828949E-001
9.21350815E-001
9.17853947E-001
9.25693702E-001
8.62008730E-001
9.01616706E-001
8.92917363E-001
8.68672871E-001
9.05818505E-001
9.12256754E-001
9.24516755E-001
8.73342062E-001
8.89997410E-001
9.20116473E-001
8.27656449E-001
8.98123009E-001
9.16639549E-001
9.22227145E-001
8.76248550E-001
8.37487883E-001
9.04994967E-001
9.11651741E-001
9.22692964E-001
8.45244013E-001
8.88132893E-001
8.97844438E-001
8.52455698E-001
8.74521542E-001
9.05053846E-001
8.88996807E-001
9.22044017E-001
8.16043416E-001
8.57279498E-001
9.14959779E-001
9.18422482E-001
8.05288146E-001
8.98498337E-001
8.24420727E-001
8.74563706E-001
9.10469483E-001
8.32502111E-001
8.58368458E-001
8.90389748E-001
8.39443470E-001
8.76796294E-001
9.04383587E-001
9.18747919E-001
8.04418879E-001
7.94547867E-001
9.14418924E-001
8.97634710E-001
7.84275823E-001
8.59131302E-001
8.13364373E-001
8.79670599E-001
8.41265270E-001
9.20374386E-001
9.20031173E-001
9.10362698E-001
8.89870661E-001
8.20862475E-001
8.63202221E-001
9.04924045E-001
8.43914680E-001
9.16210266E-001
8.24405558E-001
8.67092486E-001
8.98571931E-001
8.80203414E-001
7.83543039E-001
9.12574920E-001
8.49955463E-001
7.73872342E-001
7.63870047E-001
7.92615555E-001
8.90647280E-001
9.08226388E-001
8.00846619E-001
8.55118605E-001
8.27196564E-001
9.20031173E-001
9.19681062E-001
9.17990738E-001
8.08150344E-001
9.02271682E-001
8.68676550E-001
8.34829283E-001
9.15393421E-001
8.81701890E-001
8.95406018E-001
8.41658309E-001
9.11469045E-001
7.63448623E-001
7.53875175E-001
8.12056141E-001
7.72634283E-001
8.56457439E-001
7.44119605E-001
9.06663070E-001
7.81151636E-001
8.86859855E-001
8.71216838E-001
8.18040723E-001
7.89175917E-001
9.00338123E-001
8.43820012E-001
8.26195922E-001
7.96472826E-001
8.59688507E-001
8.77614972E-001
8.93036116E-001
7.44720191E-001
7.52902816E-001
8.03349830E-001
8.31526238E-001
7.35342951E-001
7.61654416E-001
7.24680854E-001
8.46663190E-001
8.84077250E-001
8.66473600E-001
7.69975476E-001
8.09819264E-001
7.77921602E-001
8.54472952E-001
8.74095594E-001
8.35023767E-001
8.16164805E-001
7.85341671E-001
7.34527351E-001
7.26416763E-001
7.42429623E-001
7.16118375E-001
7.92655126E-001
7.05635439E-001
8.62513881E-001
7.51027723E-001
8.40888693E-001
8.22553798E-001
7.59247160E-001
7.99571697E-001
7.67233285E-001
8.49995024E-001
8.29077990E-001
7.74933491E-001
8.06734759E-001
7.07593207E-001
7.16323031E-001
7.24223792E-001
6.97404807E-001
7.32041443E-001
6.86802907E-001
7.82519260E-001
7.40539764E-001
8.36043577E-001
8.13754575E-001
7.48785894E-001
7.90066400E-001
7.56958607E-001
8.21342098E-001
6.89039184E-001
6.97703731E-001
7.06225371E-001
7.64895218E-001
6.78706105E-001
7.14078279E-001
7.97686574E-001
7.21812351E-001
6.68287846E-001
7.30310994E-001
7.72964300E-001
8.05579146E-001
7.38685851E-001
7.80924705E-001
6.79672551E-001
6.71254750E-001
6.88143183E-001
7.47007745E-001
6.61072559E-001
6.95294661E-001
7.03084447E-001
7.55318094E-001
7.89254246E-001
7.11678571E-001
6.49981012E-001
7.20271696E-001
7.63674186E-001
7.28779839E-001
6.62014280E-001
6.70220654E-001
6.53744540E-001
6.77309227E-001
7.72206569E-001
7.37398233E-001
6.84368244E-001
6.42886110E-001
6.93009980E-001
7.45968844E-001
7.01677447E-001
6.32033921E-001
7.10370116E-001
7.54787282E-001
6.51886172E-001
6.43891226E-001
7.19125085E-001
6.58725376E-001
6.36482640E-001
6.65669940E-001
6.74283993E-001
7.27938713E-001
6.25950140E-001
6.82985787E-001
6.91748085E-001
7.36891255E-001
6.14365010E-001
7.00662016E-001
6.33779741E-001
6.40368742E-001
6.26608135E-001
7.09601353E-001
6.47019093E-001
6.19476318E-001
6.55482682E-001
6.64148885E-001
7.18745093E-001
6.08405079E-001
6.72943458E-001
6.81922364E-001
5.97247215E-001
6.25144297E-001
6.91008938E-001
6.16965895E-001
6.31537556E-001
6.10099007E-001
6.02252681E-001
6.36702043E-001
7.00254708E-001
6.45218989E-001
6.53980679E-001
5.91693314E-001
6.63008005E-001
6.72163400E-001
5.80524578E-001
6.08005151E-001
6.16001592E-001
6.00300841E-001
6.81562128E-001
5.92942567E-001
6.20950289E-001
5.85608492E-001
6.26128573E-001
6.34755328E-001
6.43786577E-001
5.75149348E-001
6.53034014E-001
6.62540524E-001
5.64620714E-001
5.97383653E-001
5.90007468E-001
6.03096550E-001
5.82774188E-001
5.76098053E-001
6.07964334E-001
6.16310772E-001
5.69121230E-001
6.25276942E-001
6.33604634E-001
5.59440601E-001
6.43285084E-001
5.78947105E-001
5.49301223E-001
5.72208819E-001
5.84040083E-001
5.89594629E-001
5.65848750E-001
5.97565184E-001
5.59725249E-001
6.06337818E-001
5.53516416E-001
6.14694459E-001
6.23566387E-001
5.44393503E-001
5.60733044E-001
5.66062204E-001
5.55100551E-001
5.70910552E-001
5.79196725E-001
5.35133179E-001
5.49408046E-001
5.87705435E-001
5.44263554E-001
5.39491907E-001
5.94350727E-001
6.03465367E-001
5.31311050E-001
5.47209492E-001
5.59347961E-001
5.43125665E-001
5.52014173E-001
5.68303444E-001
5.38473979E-001
5.34033508E-001
5.21741348E-001
5.30552425E-001
5.74845705E-001
5.26580488E-001
5.82474107E-001
5.18216139E-001
5.26826820E-001
5.39135330E-001
5.47070615E-001
5.29689776E-001
5.32874011E-001
5.23671874E-001
5.52693908E-001
5.19998730E-001
5.17493180E-001
5.09827541E-001
5.13785189E-001
5.60696217E-001
5.06636799E-001
5.12100283E-001
5.13174413E-001
5.24447310E-001
5.17929184E-001
5.14325948E-001
5.09929179E-001
5.28549208E-001
5.07477042E-001
5.05382526E-001
5.36850347E-001
4.98860787E-001
5.02535117E-001
4.96034849E-001
4.98311802E-001
4.99542752E-001
4.97177205E-001
4.97963813E-001
4.97856655E-001
5.02127729E-001
4.97172710E-001
4.95552609E-001
5.09357661E-001
4.94482253E-001
4.92297660E-001
4.89577052E-001
4.80406584E-001
4.82759923E-001
4.77374419E-001
4.84530439E-001
4.87148061E-001
4.85570002E-001
4.72115677E-001
4.85851514E-001
4.62478819E-001
4.85416852E-001
4.85078855E-001
4.83757851E-001
4.81352243E-001
4.68682248E-001
4.62817067E-001
4.16078291E-001
4.69822968E-001
4.73057734E-001
4.75198590E-001
4.79314719E-001
4.76600593E-001
4.47147796E-001
4.76825853E-001
4.35064482E-001
4.77293790E-001
3.86099071E-001
4.52819221E-001
4.76345670E-001
4.74922172E-001
4.56535970E-001
4.59237407E-001
4.63721683E-001
4.08404286E-001
4.66897176E-001
4.38473831E-001
4.73246245E-001
4.68913829E-001
3.61951020E-001
4.70040274E-001
4.70887812E-001
4.19218520E-001
3.81841268E-001
4.70744725E-001
4.37497147E-001
4.69581945E-001
4.43059990E-001
4.50624372E-001
4.55991703E-001
3.39412135E-001
3.97685215E-001
4.59367570E-001
4.22872530E-001
4.62335193E-001
4.68311527E-001
3.57942066E-001
4.63890066E-001
3.75161969E-001
4.00337000E-001
4.65489006E-001
3.17550357E-001
4.24837458E-001
4.35945994E-001
4.65948474E-001
3.36688385E-001
4.44355954E-001
4.49578433E-001
4.53726621E-001
3.80349790E-001
3.53651404E-001
4.64917323E-001
4.06273752E-001
4.57435933E-001
2.96506446E-001
3.15056428E-001
4.60055138E-001
3.60284253E-001
4.21343737E-001
3.84102820E-001
3.33167866E-001
4.32359533E-001
4.07042307E-001
4.63577636E-001
4.38765995E-001
4.49545379E-001
4.44617053E-001
4.63077260E-001
3.65822081E-001
3.40531861E-001
2.75829740E-001
4.54335063E-001
3.87126883E-001
2.90317300E-001
3.08200071E-001
4.59210799E-001
4.19715111E-001
3.46892994E-001
4.06029859E-001
3.69867885E-001
3.19805042E-001
4.28097013E-001
4.54799483E-001
4.46911971E-001
4.63089820E-001
3.89838620E-001
4.41633371E-001
2.55502811E-001
4.35367486E-001
2.69790057E-001
4.62582304E-001
3.52198165E-001
2.83910785E-001
3.26921399E-001
3.73941759E-001
4.60129167E-001
4.48554587E-001
2.95682508E-001
4.07909240E-001
2.35343301E-001
3.92696751E-001
3.33856425E-001
4.56484689E-001
3.56961228E-001
3.06941517E-001
4.41142187E-001
2.46850430E-001
4.34777560E-001
2.60880686E-001
3.79311173E-001
2.77521369E-001
4.50986881E-001
4.15481869E-001
3.39564227E-001
3.14527210E-001
4.24910239E-001
2.89012496E-001
4.44339134E-001
2.15351899E-001
3.63697401E-001
3.96380471E-001
2.26791473E-001
3.21619689E-001
4.35950255E-001
2.95746606E-001
2.38161652E-001
2.54779545E-001
3.83976493E-001
2.71143763E-001
3.44692429E-001
4.05767412E-001
1.96762180E-001
4.26513830E-001
3.70470157E-001
3.03348593E-001
2.78159952E-001
2.06019425E-001
3.27649125E-001
3.92233907E-001
2.17372214E-001
4.15370480E-001
3.52631775E-001
2.28434832E-001
3.09528907E-001
2.44887510E-001
2.84901651E-001
3.79683547E-001
1.78243301E-001
2.60682570E-001
4.03119166E-001
1.87496681E-001
3.33713503E-001
2.91524392E-001
3.64277407E-001
2.67679443E-001
1.96700149E-001
3.89403275E-001
2.07805007E-001
3.16176341E-001
1.61131915E-001
2.18788517E-001
2.34716445E-001
2.74566949E-001
1.69688942E-001
3.46462644E-001
2.98002749E-001
2.50393556E-001
3.74967097E-001
1.78929417E-001
3.21029075E-001
1.43994694E-001
1.89311515E-001
2.81379867E-001
2.57507036E-001
3.29518356E-001
3.03167198E-001
2.00349558E-001
2.15505735E-001
3.59361367E-001
1.52586813E-001
2.31328238E-001
1.61182817E-001
2.86238211E-001
2.64520964E-001
1.28181190E-001
2.39507583E-001
1.71623698E-001
3.43211811E-001
3.08452821E-001
1.97155019E-001
1.36134044E-001
1.81971522E-001
2.12247548E-001
3.17331727E-001
2.69564265E-001
2.91720214E-001
2.46709733E-001
1.44851836E-001
3.26243795E-001
2.20549648E-001
1.12186784E-001
2.74627780E-001
1.52962671E-001
1.20315478E-001
2.99853222E-001
2.52541240E-001
1.93702744E-001
1.78576857E-001
1.63352015E-001
2.28777723E-001
3.09005322E-001
1.28467024E-001
9.74125511E-002
2.82940133E-001
2.02083713E-001
2.57747296E-001
1.36756258E-001
1.04933540E-001
2.34734148E-001
1.75190820E-001
2.10406487E-001
1.60055915E-001
2.91348023E-001
1.13422836E-001
1.44833261E-001
2.65735378E-001
8.20835829E-002
2.40681484E-001
1.83614379E-001
2.18385376E-001
9.00539156E-002
1.19764949E-001
2.74313630E-001
1.91988668E-001
9.81718723E-002
2.48823567E-001
1.28009827E-001
6.76859822E-002
2.24437464E-001
1.52908557E-001
1.67935978E-001
1.37836868E-001
1.04957400E-001
2.00033856E-001
7.05913612E-002
2.57016580E-001
1.76321057E-001
2.32189665E-001
5.20409420E-002
7.98161773E-002
1.11328774E-001
2.08083457E-001
1.84499181E-001
1.21212626E-001
5.55772117E-002
2.40490426E-001
8.63730547E-002
1.30814317E-001
1.45710256E-001
3.31770376E-002
2.15925787E-001
1.60654846E-001
1.92590506E-001
6.07701110E-002
9.32872943E-002
1.68826493E-001
3.40311036E-002
2.23804062E-001
1.03275678E-001
-5.89805982E-017
2.00024282E-001
6.91277698E-002
1.12744669E-001
1.77040428E-001
4.36861962E-002
1.81511892E-002
1.54128015E-001
7.57365109E-002
2.07953162E-001
-2.34187669E-017
1.23680785E-001
1.38415812E-001
1.84487028E-001
8.58841911E-002
2.65676746E-002
1.62328735E-001
1.09003834E-002
4.73259766E-002
9.51437109E-002
-4.85722573E-017
1.92014356E-001
1.69359672E-001
1.05646825E-001
5.53869418E-002
1.47556611E-001
1.31747896E-001
3.38256303E-002
1.16202698E-001
1.71467149E-002
1.69135539E-017
1.76919908E-001
7.66422087E-003
6.47409850E-002
1.54590280E-001
7.34802005E-002
1.33620006E-001
1.17851912E-001
1.61728286E-001
-3.59955121E-017
3.74389512E-002
2.44340631E-002
5.63829372E-003
8.18976271E-002
1.40210789E-001
1.16869609E-002
1.19589467E-001
4.70468812E-002
9.13161155E-002
1.04824324E-001
1.47381036E-001
-3.70797143E-017
4.97124160E-003
1.26138316E-001
5.39361557E-002
1.06325608E-001
1.32916073E-001
2.15485461E-002
6.09442909E-002
1.20087635E-002
-2.16840434E-017
1.12394283E-001
7.92286777E-002
9.28085574E-002
6.72906565E-002
3.04108785E-002
1.19226594E-001
5.78692516E-003
9.88175167E-002
-4.42354486E-017
3.59929785E-002
7.99651016E-002
6.70152582E-002
4.16094805E-002
1.05295944E-001
1.05151628E-002
8.54181391E-002
4.89241473E-003
4.57223589E-002
-4.22838847E-017
5.44323854E-002
6.66065779E-002
9.20312288E-002
1.74027412E-002
7.18807371E-002
4.65562852E-003
-4.19586241E-017
5.23139063E-002
2.19134015E-002
7.82428182E-002
9.03309333E-003
2.59787788E-002
5.82688062E-002
2.90090160E-002
3.37408572E-002
3.94177822E-002
1.35210996E-002
-2.12503626E-017
6.48882522E-002
4.08715437E-002
3.49913997E-003
6.54271835E-003
5.03962706E-002
1.42268383E-002
-1.06251813E-017
2.36995114E-002
2.45627771E-002
1.69790416E-002
2.76847826E-002
3.06144526E-003
1.82900671E-002
3.17702824E-002
7.81741113E-003
-6.13658430E-017
3.09987098E-003
1.50547378E-002
1.34791261E-002
1.73472348E-017
-2.77555756E-017
7.58036126E-003
1.23837463E-002
9.08129836E-003
3.79289795E-003
9.09703008E-003
-7.28583860E-017
9.34269557E-003
4.33680869E-019
6.75373882E-003
3.46491850E-003
-4.85722573E-017
6.10624235E-003
-5.46437895E-017
3.61638664E-003
4.28360674E-003
4.72323691E-003
4.18580063E-003
2.94902991E-017
-1.99493200E-017
-3.12250226E-017
-5.98479599E-017
-3.64291930E-017
2.03830008E-017
1.73472348E-018
2.32019265E-017
0.00000000E+000
-0.00000000E+000
