# vtk DataFile Version 1.0
ECM-CELL DIFFUSION-MECHANICS
ASCII

DATASET UNSTRUCTURED_GRID
POINTS      895 float
1.50000000E+001 3.00000000E+001 0.00000000E+000
1.40000000E+001 3.00000000E+001 0.00000000E+000
1.42860000E+001 2.92860000E+001 0.00000000E+000
1.33390000E+001 2.93210000E+001 0.00000000E+000
1.30000000E+001 3.00000000E+001 0.00000000E+000
1.35710000E+001 2.85710000E+001 0.00000000E+000
1.25000000E+001 2.91340000E+001 0.00000000E+000
1.20000000E+001 3.00000000E+001 0.00000000E+000
1.28570000E+001 2.78570000E+001 0.00000000E+000
1.20000000E+001 2.82680000E+001 0.00000000E+000
1.15000000E+001 2.91340000E+001 0.00000000E+000
1.10000000E+001 3.00000000E+001 0.00000000E+000
1.21430000E+001 2.71430000E+001 0.00000000E+000
1.14540000E+001 2.75000000E+001 0.00000000E+000
1.05880000E+001 2.90000000E+001 0.00000000E+000
1.08030000E+001 2.81410000E+001 0.00000000E+000
1.00000000E+001 3.00000000E+001 0.00000000E+000
1.14290000E+001 2.64290000E+001 0.00000000E+000
1.05880000E+001 2.70000000E+001 0.00000000E+000
9.76870000E+000 2.85830000E+001 0.00000000E+000
9.72240000E+000 2.75000000E+001 0.00000000E+000
9.00000000E+000 3.00000000E+001 0.00000000E+000
1.07140000E+001 2.57140000E+001 0.00000000E+000
8.85640000E+000 2.90000000E+001 0.00000000E+000
9.72240000E+000 2.65000000E+001 0.00000000E+000
8.85640000E+000 2.80000000E+001 0.00000000E+000
8.85640000E+000 2.70000000E+001 0.00000000E+000
8.00000000E+000 3.00000000E+001 0.00000000E+000
1.00000000E+001 2.50000000E+001 0.00000000E+000
7.99040000E+000 2.85000000E+001 0.00000000E+000
8.70610000E+000 2.61470000E+001 0.00000000E+000
7.99040000E+000 2.75000000E+001 0.00000000E+000
8.97020000E+000 2.52660000E+001 0.00000000E+000
7.99040000E+000 2.65000000E+001 0.00000000E+000
7.12440000E+000 2.90000000E+001 0.00000000E+000
7.00000000E+000 3.00000000E+001 0.00000000E+000
9.28570000E+000 2.42860000E+001 0.00000000E+000
7.12440000E+000 2.80000000E+001 0.00000000E+000
7.99100000E+000 2.54680000E+001 0.00000000E+000
7.12440000E+000 2.70000000E+001 0.00000000E+000
8.30520000E+000 2.45200000E+001 0.00000000E+000
7.15860000E+000 2.59480000E+001 0.00000000E+000
6.21530000E+000 2.85830000E+001 0.00000000E+000
6.00000000E+000 3.00000000E+001 0.00000000E+000
8.57140000E+000 2.35710000E+001 0.00000000E+000
6.25830000E+000 2.75000000E+001 0.00000000E+000
7.22630000E+000 2.49580000E+001 0.00000000E+000
6.25830000E+000 2.65000000E+001 0.00000000E+000
5.42530000E+000 2.90740000E+001 0.00000000E+000
7.38630000E+000 2.38100000E+001 0.00000000E+000
5.39230000E+000 2.80000000E+001 0.00000000E+000
6.25830000E+000 2.55000000E+001 0.00000000E+000
5.00000000E+000 3.00000000E+001 0.00000000E+000
5.39230000E+000 2.70000000E+001 0.00000000E+000
7.85710000E+000 2.28570000E+001 0.00000000E+000
6.25830000E+000 2.45000000E+001 0.00000000E+000
5.39230000E+000 2.60000000E+001 0.00000000E+000
7.12440000E+000 2.30000000E+001 0.00000000E+000
4.51880000E+000 2.87860000E+001 0.00000000E+000
4.52630000E+000 2.75000000E+001 0.00000000E+000
5.39230000E+000 2.50000000E+001 0.00000000E+000
6.25830000E+000 2.35000000E+001 0.00000000E+000
4.00000000E+000 3.00000000E+001 0.00000000E+000
4.52630000E+000 2.65000000E+001 0.00000000E+000
7.14290000E+000 2.21430000E+001 0.00000000E+000
5.39230000E+000 2.40000000E+001 0.00000000E+000
3.66030000E+000 2.90000000E+001 0.00000000E+000
4.52630000E+000 2.55000000E+001 0.00000000E+000
3.66030000E+000 2.80000000E+001 0.00000000E+000
6.25830000E+000 2.25000000E+001 0.00000000E+000
3.66030000E+000 2.70000000E+001 0.00000000E+000
4.52630000E+000 2.45000000E+001 0.00000000E+000
5.39230000E+000 2.30000000E+001 0.00000000E+000
3.00000000E+000 3.00000000E+001 0.00000000E+000
3.66030000E+000 2.60000000E+001 0.00000000E+000
6.42860000E+000 2.14290000E+001 0.00000000E+000
2.82850000E+000 2.85830000E+001 0.00000000E+000
4.52630000E+000 2.35000000E+001 0.00000000E+000
3.66030000E+000 2.50000000E+001 0.00000000E+000
2.79420000E+000 2.75000000E+001 0.00000000E+000
5.39230000E+000 2.20000000E+001 0.00000000E+000
2.90860000E+000 2.66340000E+001 0.00000000E+000
3.66030000E+000 2.40000000E+001 0.00000000E+000
4.52630000E+000 2.25000000E+001 0.00000000E+000
2.00000000E+000 3.00000000E+001 0.00000000E+000
1.92820000E+000 2.90000000E+001 0.00000000E+000
5.71430000E+000 2.07140000E+001 0.00000000E+000
1.92820000E+000 2.80000000E+001 0.00000000E+000
2.50000000E+000 2.56700000E+001 0.00000000E+000
3.66030000E+000 2.30000000E+001 0.00000000E+000
2.79420000E+000 2.45000000E+001 0.00000000E+000
1.92820000E+000 2.70000000E+001 0.00000000E+000
4.65890000E+000 2.13690000E+001 0.00000000E+000
2.79420000E+000 2.35000000E+001 0.00000000E+000
3.66030000E+000 2.20000000E+001 0.00000000E+000
1.00000000E+000 3.00000000E+001 0.00000000E+000
1.85880000E+000 2.49160000E+001 0.00000000E+000
9.71280000E-001 2.83610000E+001 0.00000000E+000
5.00000000E+000 2.00000000E+001 0.00000000E+000
1.50000000E+000 2.56700000E+001 0.00000000E+000
2.79420000E+000 2.25000000E+001 0.00000000E+000
1.00000000E+000 2.65360000E+001 0.00000000E+000
7.61100000E-001 2.74430000E+001 0.00000000E+000
3.66030000E+000 2.10000000E+001 0.00000000E+000
5.00000000E-001 2.91340000E+001 0.00000000E+000
1.50000000E+000 2.39380000E+001 0.00000000E+000
1.92820000E+000 2.30000000E+001 0.00000000E+000
5.00000000E+000 1.90000000E+001 0.00000000E+000
2.79420000E+000 2.15000000E+001 0.00000000E+000
1.00000000E+000 2.48040000E+001 0.00000000E+000
1.77640000E-015 3.00000000E+001 0.00000000E+000
-3.55270000E-015 2.82680000E+001 0.00000000E+000
5.00000000E-001 2.56700000E+001 0.00000000E+000
3.58180000E+000 2.00000000E+001 0.00000000E+000
-8.88180000E-015 2.65360000E+001 0.00000000E+000
1.71530000E+000 2.21110000E+001 0.00000000E+000
2.79420000E+000 2.05000000E+001 0.00000000E+000
-5.00000000E-001 2.91340000E+001 0.00000000E+000
5.00000000E+000 1.80000000E+001 0.00000000E+000
1.00000000E+000 2.30720000E+001 0.00000000E+000
-5.00000000E-001 2.74020000E+001 0.00000000E+000
5.00000000E-001 2.39380000E+001 0.00000000E+000
3.66030000E+000 1.90000000E+001 0.00000000E+000
1.92820000E+000 2.10000000E+001 0.00000000E+000
-8.88180000E-015 2.48040000E+001 0.00000000E+000
-1.00000000E+000 3.00000000E+001 0.00000000E+000
-1.00000000E+000 2.82680000E+001 0.00000000E+000
-5.00000000E-001 2.56700000E+001 0.00000000E+000
2.79420000E+000 1.95000000E+001 0.00000000E+000
1.06220000E+000 2.15000000E+001 0.00000000E+000
-1.00000000E+000 2.65360000E+001 0.00000000E+000
5.00000000E+000 1.70000000E+001 0.00000000E+000
1.92820000E+000 2.00000000E+001 0.00000000E+000
5.00000000E-001 2.22060000E+001 0.00000000E+000
3.66030000E+000 1.80000000E+001 0.00000000E+000
-1.50000000E+000 2.91340000E+001 0.00000000E+000
1.77640000E-015 2.30720000E+001 0.00000000E+000
-5.00000000E-001 2.39380000E+001 0.00000000E+000
-1.50000000E+000 2.74020000E+001 0.00000000E+000
2.79420000E+000 1.85000000E+001 0.00000000E+000
-1.00000000E+000 2.48040000E+001 0.00000000E+000
1.06220000E+000 2.05000000E+001 0.00000000E+000
-2.00000000E+000 3.00000000E+001 0.00000000E+000
-1.50000000E+000 2.56700000E+001 0.00000000E+000
1.92820000E+000 1.90000000E+001 0.00000000E+000
-2.00000000E+000 2.82680000E+001 0.00000000E+000
5.00000000E+000 1.60000000E+001 0.00000000E+000
3.66030000E+000 1.70000000E+001 0.00000000E+000
1.42110000E-014 2.13400000E+001 0.00000000E+000
-2.00000000E+000 2.65360000E+001 0.00000000E+000
-5.00000000E-001 2.22060000E+001 0.00000000E+000
-1.00000000E+000 2.30720000E+001 0.00000000E+000
1.06220000E+000 1.95000000E+001 0.00000000E+000
2.79420000E+000 1.75000000E+001 0.00000000E+000
-2.50000000E+000 2.91340000E+001 0.00000000E+000
-1.50000000E+000 2.39380000E+001 0.00000000E+000
-2.50000000E+000 2.74020000E+001 0.00000000E+000
1.92820000E+000 1.80000000E+001 0.00000000E+000
-2.00000000E+000 2.48040000E+001 0.00000000E+000
1.96150000E-001 2.00000000E+001 0.00000000E+000
-3.00000000E+000 3.00000000E+001 0.00000000E+000
3.66030000E+000 1.60000000E+001 0.00000000E+000
5.00000000E+000 1.50000000E+001 0.00000000E+000
-2.50000000E+000 2.56700000E+001 0.00000000E+000
1.06220000E+000 1.85000000E+001 0.00000000E+000
-3.00000000E+000 2.82680000E+001 0.00000000E+000
-1.00000000E+000 2.13400000E+001 0.00000000E+000
2.79420000E+000 1.65000000E+001 0.00000000E+000
-1.50000000E+000 2.22060000E+001 0.00000000E+000
-6.69870000E-001 2.05000000E+001 0.00000000E+000
-3.00000000E+000 2.65360000E+001 0.00000000E+000
-2.00000000E+000 2.30720000E+001 0.00000000E+000
1.92820000E+000 1.70000000E+001 0.00000000E+000
1.96150000E-001 1.90000000E+001 0.00000000E+000
-2.50000000E+000 2.39380000E+001 0.00000000E+000
-3.58330000E+000 2.91120000E+001 0.00000000E+000
1.06220000E+000 1.75000000E+001 0.00000000E+000
-3.00000000E+000 2.48040000E+001 0.00000000E+000
-3.58330000E+000 2.73350000E+001 0.00000000E+000
3.66030000E+000 1.50000000E+001 0.00000000E+000
-6.69870000E-001 1.95000000E+001 0.00000000E+000
5.00000000E+000 1.40000000E+001 0.00000000E+000
2.79420000E+000 1.55000000E+001 0.00000000E+000
-4.00000000E+000 3.00000000E+001 0.00000000E+000
1.96150000E-001 1.80000000E+001 0.00000000E+000
-3.58330000E+000 2.57250000E+001 0.00000000E+000
-2.00000000E+000 2.13400000E+001 0.00000000E+000
-4.00000000E+000 2.82680000E+001 0.00000000E+000
1.92820000E+000 1.60000000E+001 0.00000000E+000
-2.50000000E+000 2.22060000E+001 0.00000000E+000
-1.52560000E+000 2.02400000E+001 0.00000000E+000
-3.00000000E+000 2.30720000E+001 0.00000000E+000
-4.03330000E+000 2.65190000E+001 0.00000000E+000
1.06220000E+000 1.65000000E+001 0.00000000E+000
-6.69870000E-001 1.85000000E+001 0.00000000E+000
-3.50000000E+000 2.39380000E+001 0.00000000E+000
3.66030000E+000 1.40000000E+001 0.00000000E+000
-4.00000000E+000 2.48040000E+001 0.00000000E+000
1.96150000E-001 1.70000000E+001 0.00000000E+000
5.00000000E+000 1.30000000E+001 0.00000000E+000
2.79420000E+000 1.45000000E+001 0.00000000E+000
-2.40190000E+000 2.05000000E+001 0.00000000E+000
-1.53590000E+000 1.90000000E+001 0.00000000E+000
1.92820000E+000 1.50000000E+001 0.00000000E+000
[...]
POINT_DATA      895
SCALARS Ux float
LOOKUP_TABLE default
1.00000000E+000
9.99639688E-001
1.00000000E+000
9.99151917E-001
9.98550515E-001
1.00000000E+000
9.97985583E-001
9.96729596E-001
1.00000000E+000
9.97846189E-001
9.95820800E-001
9.94214232E-001
1.00000000E+000
9.97691204E-001
9.93325677E-001
9.94862434E-001
9.90967051E-001
1.00000000E+000
9.96112490E-001
9.90780061E-001
9.92080541E-001
9.87079044E-001
1.00000000E+000
9.86814289E-001
9.94170364E-001
9.87733201E-001
9.89367507E-001
9.82521584E-001
1.00000000E+000
9.83117446E-001
9.90663151E-001
9.84292847E-001
9.94635471E-001
9.86118998E-001
9.78392121E-001
9.77476971E-001
1.00000000E+000
9.79083289E-001
9.88817480E-001
9.80336698E-001
9.94032819E-001
9.82563186E-001
9.73503716E-001
9.71927740E-001
1.00000000E+000
9.74548166E-001
9.85731311E-001
9.75755094E-001
9.68720718E-001
9.91442942E-001
9.68864055E-001
9.77530040E-001
9.66106311E-001
9.69468350E-001
1.00000000E+000
9.80095908E-001
9.70408808E-001
9.93820617E-001
9.63270621E-001
9.63488580E-001
9.71807746E-001
9.83789351E-001
9.60106157E-001
9.63745426E-001
1.00000000E+000
9.73883005E-001
9.58017730E-001
9.64146235E-001
9.57885183E-001
9.89123534E-001
9.57639707E-001
9.64782538E-001
9.77018400E-001
9.54165792E-001
9.57320889E-001
1.00000000E+000
9.52905123E-001
9.65804178E-001
9.56812024E-001
9.52130616E-001
9.82009281E-001
9.52212300E-001
9.56242074E-001
9.67501217E-001
9.48410599E-001
9.47792950E-001
1.00000000E+000
9.47188277E-001
9.48029865E-001
9.55397894E-001
9.48534413E-001
9.46084816E-001
9.73980180E-001
9.46119344E-001
9.53872548E-001
9.43093453E-001
9.41473194E-001
9.42172397E-001
1.00000000E+000
9.40804384E-001
9.42845502E-001
9.39513314E-001
9.39847283E-001
9.50168908E-001
9.40337532E-001
9.35121898E-001
9.35013674E-001
9.36200170E-001
9.37376101E-001
9.34596486E-001
9.38279188E-001
9.37234971E-001
9.34241286E-001
9.39591840E-001
9.33941264E-001
9.27221843E-001
9.28423458E-001
9.35857015E-001
8.95926624E-001
9.26425368E-001
9.33521290E-001
9.27176474E-001
9.15087729E-001
9.20462388E-001
9.27946446E-001
9.34192649E-001
9.32972309E-001
9.28645908E-001
9.12709780E-001
9.15131208E-001
9.29194465E-001
8.65447404E-001
9.08051193E-001
9.15916721E-001
8.87137215E-001
9.32125505E-001
9.18408193E-001
9.20560570E-001
9.29524287E-001
8.91183047E-001
9.22458051E-001
9.04355214E-001
9.30911738E-001
9.24094028E-001
8.91590538E-001
9.29570858E-001
8.39612479E-001
8.61279624E-001
9.03974114E-001
9.25440100E-001
9.08315917E-001
9.12054254E-001
8.90765422E-001
8.68251711E-001
9.29248538E-001
9.15320126E-001
9.26446781E-001
8.72323643E-001
9.18181334E-001
8.90141865E-001
9.28529770E-001
8.37383163E-001
8.16261753E-001
9.20644406E-001
8.74509898E-001
9.27107814E-001
8.97057887E-001
8.45662347E-001
9.02484489E-001
8.89903601E-001
9.22736724E-001
9.07236366E-001
8.51925755E-001
8.75942848E-001
9.11430299E-001
9.27145396E-001
8.56480808E-001
9.15141201E-001
9.24045548E-001
8.14938794E-001
8.77313626E-001
7.94385242E-001
8.23810412E-001
9.27110898E-001
8.59955320E-001
9.18421863E-001
8.91989931E-001
9.25649674E-001
8.31324246E-001
8.98252721E-001
8.82087324E-001
9.03876432E-001
9.21063235E-001
8.37511759E-001
8.62971448E-001
9.08826452E-001
7.93513551E-001
9.13388790E-001
8.42657848E-001
7.73403710E-001
8.02664419E-001
8.81341182E-001
8.66008387E-001
8.10890027E-001
8.88522083E-001
9.26577558E-001
9.26044218E-001
8.47169473E-001
9.24570909E-001
8.18145190E-001
8.95069089E-001
9.22076691E-001
9.01945691E-001
7.73057787E-001
8.69240441E-001
8.24536242E-001
9.18477024E-001
8.51438925E-001
7.82105606E-001
7.53096379E-001
9.13769001E-001
7.90728471E-001
8.30293801E-001
8.73062580E-001
7.98667446E-001
8.55763271E-001
9.07772868E-001
8.87005355E-001
8.35699405E-001
8.05941082E-001
9.00652321E-001
7.52691145E-001
8.60380307E-001
7.61966649E-001
8.12668009E-001
8.77289590E-001
8.41021755E-001
7.70834560E-001
7.33250248E-001
8.92082272E-001
7.79208790E-001
8.19031754E-001
7.87090868E-001
8.65438148E-001
8.46489698E-001
8.82271700E-001
8.25240883E-001
7.94538912E-001
7.32929088E-001
7.42200112E-001
7.51177722E-001
8.52287390E-001
8.01666204E-001
7.13761997E-001
8.71048091E-001
7.59820140E-001
8.31498258E-001
7.68111071E-001
8.08622353E-001
7.76078039E-001
8.58561262E-001
8.37986922E-001
7.13488421E-001
7.22709159E-001
7.83789229E-001
8.15571701E-001
7.31727044E-001
7.40517846E-001
6.94578600E-001
7.91347072E-001
7.49070714E-001
8.44868297E-001
8.22678347E-001
7.57397973E-001
7.98876447E-001
7.65540145E-001
8.30099804E-001
7.03457151E-001
6.94322867E-001
7.12453244E-001
7.21304197E-001
7.73565086E-001
8.06513712E-001
7.30007145E-001
6.75680174E-001
7.38570186E-001
7.81563069E-001
8.14399906E-001
7.47017655E-001
7.89640609E-001
7.55392955E-001
6.84426206E-001
6.93343105E-001
6.75417315E-001
7.02178821E-001
7.10940992E-001
7.63758009E-001
7.97915446E-001
7.19638999E-001
6.57074660E-001
7.28288606E-001
7.72191056E-001
7.36916124E-001
6.74397421E-001
6.65619473E-001
7.80784072E-001
6.83145805E-001
6.56782222E-001
7.45560687E-001
6.91885498E-001
7.00631344E-001
7.54275091E-001
7.09395705E-001
6.38795020E-001
7.18193013E-001
7.63125608E-001
7.27043806E-001
6.55632671E-001
6.64217279E-001
6.47061110E-001
6.72852618E-001
6.38451712E-001
6.81563464E-001
7.35978046E-001
6.90363385E-001
6.99258927E-001
7.45037242E-001
6.20897938E-001
7.08254890E-001
7.17359994E-001
6.45417252E-001
6.37083511E-001
6.53857811E-001
6.28797189E-001
6.62445909E-001
6.20483298E-001
6.71202013E-001
7.26591538E-001
6.80128904E-001
6.89217645E-001
6.03462905E-001
6.98455885E-001
6.26786603E-001
6.34925527E-001
6.18806263E-001
6.43288343E-001
6.10897384E-001
7.07835877E-001
6.51911184E-001
6.02958079E-001
6.60799280E-001
6.69932157E-001
6.79275036E-001
5.86590415E-001
6.88791939E-001
6.16097058E-001
6.08389868E-001
6.24106172E-001
6.00883055E-001
6.32483431E-001
5.93456600E-001
6.41248187E-001
5.85980574E-001
6.50373213E-001
6.59798777E-001
6.69453888E-001
5.70397490E-001
5.97442476E-001
6.04931804E-001
5.90323576E-001
6.12910838E-001
5.83424678E-001
6.21435940E-001
5.76596047E-001
6.30486051E-001
5.69677582E-001
6.39974725E-001
6.49783736E-001
5.55006782E-001
5.85834658E-001
5.79078017E-001
5.93199579E-001
5.72723138E-001
6.01308204E-001
5.66565708E-001
6.10178904E-001
5.60471402E-001
6.19705201E-001
5.54191777E-001
6.29701488E-001
5.40514523E-001
5.66954899E-001
5.73401116E-001
5.61189520E-001
5.80811001E-001
5.43140081E-001
5.89312927E-001
5.54266766E-001
5.98824903E-001
5.43254303E-001
6.09065294E-001
5.45169335E-001
5.33237039E-001
5.53659537E-001
5.48566467E-001
5.59947232E-001
5.27172064E-001
5.67696919E-001
5.43207406E-001
5.31929793E-001
5.77057333E-001
5.87629998E-001
5.36170542E-001
5.29419158E-001
5.23048949E-001
5.45123031E-001
5.36738969E-001
5.25466022E-001
5.30980270E-001
5.53929509E-001
5.15138910E-001
5.27138555E-001
5.64950113E-001
5.19559836E-001
5.20535286E-001
5.16160420E-001
5.10663880E-001
5.14638869E-001
5.16741806E-001
5.27223766E-001
5.40096805E-001
5.11258280E-001
5.04108745E-001
5.14888589E-001
5.07502434E-001
5.06076778E-001
5.02959823E-001
5.05897447E-001
5.03282245E-001
5.00236274E-001
5.10817103E-001
4.99998400E-001
4.97638597E-001
4.95270113E-001
4.97283841E-001
4.94666905E-001
4.96085314E-001
4.83870316E-001
4.87218596E-001
4.90444059E-001
4.93321302E-001
4.90985215E-001
4.67002717E-001
4.90004938E-001
4.81089042E-001
4.74330411E-001
4.84459370E-001
4.86482034E-001
4.86445405E-001
4.85219740E-001
4.25156888E-001
4.69258324E-001
4.75884046E-001
4.57557514E-001
4.84504909E-001
4.79253391E-001
3.95571652E-001
4.80705244E-001
4.37245123E-001
4.65472591E-001
4.54900632E-001
4.79966030E-001
4.71581608E-001
4.79898753E-001
4.75473397E-001
4.52539909E-001
4.37987080E-001
4.62227604E-001
3.69704759E-001
4.76649772E-001
4.11980243E-001
4.68515868E-001
4.72067178E-001
3.74884133E-001
4.50993611E-001
4.75398220E-001
4.37211735E-001
4.18059953E-001
4.74607151E-001
4.59687008E-001
3.46656116E-001
3.86423575E-001
4.73525570E-001
4.66113485E-001
4.37613937E-001
4.20327114E-001
4.49503580E-001
4.69503909E-001
3.54617615E-001
3.95969086E-001
4.58330866E-001
4.72266069E-001
3.24853464E-001
4.70991490E-001
4.64274080E-001
3.65294817E-001
4.22617867E-001
4.37709642E-001
4.70893003E-001
4.01511069E-001
4.49160216E-001
4.67863787E-001
3.74137131E-001
3.33190861E-001
4.57447455E-001
4.23716635E-001
4.05618173E-001
3.03806577E-001
4.69569460E-001
4.37765864E-001
3.43764984E-001
4.63177399E-001
3.81705591E-001
4.48921161E-001
3.12563927E-001
4.66921361E-001
4.57114252E-001
3.52654531E-001
4.09133164E-001
4.25913212E-001
3.88540197E-001
4.68789006E-001
3.23967101E-001
4.39084703E-001
2.83281720E-001
4.63018702E-001
3.61405297E-001
4.49711738E-001
2.96160607E-001
3.32632892E-001
4.11984534E-001
3.92564833E-001
4.57763286E-001
4.66916606E-001
4.27525666E-001
3.69486551E-001
4.40664830E-001
3.03851775E-001
4.63936764E-001
2.63095440E-001
4.50909455E-001
3.40065121E-001
3.96911155E-001
4.67958316E-001
4.14849093E-001
3.75209355E-001
2.76367193E-001
3.12615558E-001
4.30212248E-001
3.50148734E-001
4.59055225E-001
4.67130283E-001
4.42694220E-001
2.83888002E-001
3.20423065E-001
4.00543950E-001
3.79997203E-001
4.65025057E-001
4.52989651E-001
4.18391742E-001
2.43125017E-001
3.56927292E-001
4.32938466E-001
3.30749356E-001
2.92867076E-001
4.61321509E-001
2.52674450E-001
4.45573717E-001
3.85759311E-001
2.66825261E-001
4.05276207E-001
3.63901214E-001
3.04031218E-001
4.21948760E-001
3.39783620E-001
4.56172074E-001
4.36627047E-001
2.23318846E-001
2.74066091E-001
3.11434409E-001
4.49541100E-001
3.91105652E-001
3.69503482E-001
2.33129957E-001
4.09519116E-001
2.85685139E-001
3.46453512E-001
4.26470466E-001
3.21776441E-001
2.42981498E-001
4.41461488E-001
2.55655582E-001
3.75830464E-001
3.96072646E-001
3.52734103E-001
2.04200305E-001
2.93028299E-001
4.14823314E-001
3.28485006E-001
2.66234592E-001
4.31975323E-001
2.13709487E-001
3.03054638E-001
4.02226083E-001
3.81407205E-001
3.59957359E-001
2.23617980E-001
2.74525035E-001
3.35117856E-001
4.21126827E-001
1.85910657E-001
3.10128902E-001
2.33167225E-001
2.84031238E-001
3.66016416E-001
3.88237417E-001
3.43170274E-001
2.45115027E-001
4.09002122E-001
3.19792841E-001
2.55662437E-001
1.91114836E-001
2.92239947E-001
1.68386983E-001
3.73648848E-001
2.65009833E-001
3.95688176E-001
2.02921719E-001
3.49688049E-001
1.76049394E-001
3.26253136E-001
3.01760134E-001
2.13220787E-001
2.73837202E-001
3.57846051E-001
3.81312390E-001
3.32951634E-001
1.51592330E-001
3.08628372E-001
2.35554583E-001
2.46024800E-001
2.83376160E-001
2.22913575E-001
1.60029295E-001
3.65998954E-001
3.41710365E-001
1.70871273E-001
1.82771237E-001
2.54991048E-001
2.92572466E-001
3.15441033E-001
1.35478899E-001
1.93057662E-001
1.43603123E-001
2.62949387E-001
3.49895129E-001
2.03843676E-001
3.24674737E-001
3.00356536E-001
2.15435568E-001
2.29721808E-001
1.51805639E-001
2.74198210E-001
1.64324341E-001
1.19967614E-001
3.33126148E-001
1.73973892E-001
1.27839340E-001
3.07526285E-001
2.82503126E-001
2.40036576E-001
1.85027526E-001
1.35120267E-001
1.04994104E-001
1.94974045E-001
3.15827019E-001
1.45883975E-001
2.89763174E-001
1.12645116E-001
2.51287170E-001
2.64200404E-001
2.05668880E-001
1.56534076E-001
1.19806722E-001
9.04178840E-002
1.66132924E-001
2.15633791E-001
2.98314423E-001
9.64611451E-002
2.72460928E-001
1.76843278E-001
2.28226399E-001
1.27005116E-001
1.86783880E-001
7.60441853E-002
1.37027433E-001
2.80924457E-001
2.52457519E-001
8.36494421E-002
1.47290021E-001
2.34914275E-001
2.08356569E-001
1.08198297E-001
1.55812140E-001
1.89856319E-001
6.15688335E-002
9.09209390E-002
2.63769953E-001
1.67887871E-001
6.79676197E-002
1.16074747E-001
2.17021147E-001
2.38061809E-001
1.28646545E-001
4.62590040E-002
1.38106127E-001
1.70973721E-001
5.52086028E-002
2.46929176E-001
2.22431145E-001
6.56450395E-002
1.98348101E-001
2.81156033E-002
1.79244597E-001
9.28394877E-002
3.84749844E-002
2.30445318E-001
1.38349910E-001
1.05227416E-001
2.06513074E-001
1.51736252E-001
4.16333634E-017
1.20506440E-001
2.52667376E-002
1.60565541E-001
1.82526657E-001
6.93923334E-002
4.12991690E-002
2.14328663E-001
1.91017307E-001
1.34441069E-016
1.26661132E-002
8.79742449E-002
1.68158884E-001
5.16749900E-002
1.19769151E-001
1.98624224E-001
7.30352198E-002
1.04287584E-001
1.24032729E-016
1.41926317E-001
1.75915663E-001
2.30172029E-002
1.14688497E-002
1.26547932E-001
1.53703540E-001
8.86763566E-002
5.61930000E-002
1.83325641E-001
7.87591526E-003
-9.93129190E-017
1.61226544E-001
7.35278971E-002
3.49023320E-002
1.04182478E-001
5.95991688E-003
1.68417036E-001
1.50168698E-002
5.88536433E-002
8.86296558E-002
-2.94902991E-017
1.46936706E-001
1.08952922E-001
1.26007605E-001
7.37898449E-002
4.40907328E-002
5.43722628E-003
1.53930703E-001
-1.30104261E-017
5.98257001E-002
3.15429791E-002
1.31650515E-001
1.09404171E-002
8.84375344E-002
4.84997529E-003
1.39817162E-001
4.67829475E-002
7.29394229E-002
1.88765021E-002
-2.21177243E-017
1.19464549E-001
9.97655844E-002
5.90912064E-002
3.46927190E-002
3.48068526E-003
1.26074043E-001
8.55691464E-003
4.70743941E-002
5.44269491E-017
7.10720753E-002
1.04824959E-001
2.43263464E-002
3.98986572E-003
1.12614974E-001
5.75590375E-002
3.56997331E-002
7.86197305E-002
9.30982735E-002
-2.81892565E-018
4.40458769E-003
4.57072536E-002
9.93865751E-002
2.60723710E-002
7.95409918E-002
8.95968795E-003
6.87384177E-017
3.46151106E-003
8.62889112E-002
3.34132059E-002
1.52103641E-002
6.70103273E-002
4.12161496E-002
5.05817184E-002
2.49884062E-002
3.00930295E-003
5.16080234E-017
7.31034051E-002
1.64955654E-002
5.21352235E-002
3.18816697E-003
6.90192768E-003
5.96145587E-002
1.06251813E-016
2.65562437E-002
3.18010346E-002
3.82932003E-002
8.83195146E-003
1.65122116E-002
2.58653994E-003
4.50623395E-002
1.93670082E-002
-5.55111512E-017
2.47721555E-002
3.47188565E-003
1.93710095E-002
8.19812727E-003
2.76854950E-002
2.68882139E-016
1.53089133E-002
3.66289780E-003
4.16333634E-017
1.34768678E-002
6.02816408E-017
9.09623628E-003
3.06755166E-003
7.26807510E-003
7.83488452E-003
-7.97972799E-017
8.14862186E-003
9.21642956E-003
2.78812076E-003
7.74116006E-003
2.25514052E-017
3.12844867E-003
9.02056208E-017
5.46719344E-003
9.10729825E-017
5.78608589E-003
2.68774490E-003
3.31809993E-003
-3.46944695E-018
4.36220914E-003
-8.67361738E-019
4.00225717E-003
3.18005252E-003
3.02145586E-003
-4.51028104E-017
-1.59594560E-016
3.46944695E-017
5.20417043E-017
2.08166817E-016
5.55111512E-017
-2.77555756E-017
-1.38777878E-017
0.00000000E+000
