# vtk DataFile Version 1.0
ECM-CELL DIFFUSION-MECHANICS
ASCII

DATASET UNSTRUCTURED_GRID
POINTS      908 float
1.50000000E+001 3.00000000E+001 0.00000000E+000
1.40000000E+001 3.00000000E+001 0.00000000E+000
1.42860000E+001 2.92860000E+001 0.00000000E+000
1.32860000E+001 2.92860000E+001 0.00000000E+000
1.30000000E+001 3.00000000E+001 0.00000000E+000
1.35710000E+001 2.85710000E+001 0.00000000E+000
1.25710000E+001 2.85710000E+001 0.00000000E+000
1.20000000E+001 3.00000000E+001 0.00000000E+000
1.28570000E+001 2.78570000E+001 0.00000000E+000
1.15710000E+001 2.85710000E+001 0.00000000E+000
1.10000000E+001 3.00000000E+001 0.00000000E+000
1.21430000E+001 2.71430000E+001 0.00000000E+000
1.10710000E+001 2.77050000E+001 0.00000000E+000
1.05000000E+001 2.91340000E+001 0.00000000E+000
1.00000000E+001 3.00000000E+001 0.00000000E+000
1.14290000E+001 2.64290000E+001 0.00000000E+000
1.00000000E+001 2.82680000E+001 0.00000000E+000
1.03570000E+001 2.69910000E+001 0.00000000E+000
9.50000000E+000 2.91340000E+001 0.00000000E+000
9.00000000E+000 3.00000000E+001 0.00000000E+000
1.07140000E+001 2.57140000E+001 0.00000000E+000
9.16730000E+000 2.83200000E+001 0.00000000E+000
9.50000000E+000 2.74020000E+001 0.00000000E+000
8.66730000E+000 2.91860000E+001 0.00000000E+000
9.85710000E+000 2.61250000E+001 0.00000000E+000
8.66730000E+000 2.74540000E+001 0.00000000E+000
8.33460000E+000 2.83710000E+001 0.00000000E+000
9.00000000E+000 2.65360000E+001 0.00000000E+000
8.00000000E+000 3.00000000E+001 0.00000000E+000
1.00000000E+001 2.50000000E+001 0.00000000E+000
7.66730000E+000 2.91860000E+001 0.00000000E+000
9.14290000E+000 2.54110000E+001 0.00000000E+000
7.50370000E+000 2.77120000E+001 0.00000000E+000
7.83640000E+000 2.67950000E+001 0.00000000E+000
7.00000000E+000 3.00000000E+001 0.00000000E+000
9.28570000E+000 2.42860000E+001 0.00000000E+000
7.88940000E+000 2.57950000E+001 0.00000000E+000
6.83640000E+000 2.85270000E+001 0.00000000E+000
8.03230000E+000 2.46700000E+001 0.00000000E+000
6.67280000E+000 2.70530000E+001 0.00000000E+000
6.00000000E+000 3.00000000E+001 0.00000000E+000
5.99030000E+000 2.91570000E+001 0.00000000E+000
8.57140000E+000 2.35710000E+001 0.00000000E+000
6.72580000E+000 2.60540000E+001 0.00000000E+000
5.82670000E+000 2.76830000E+001 0.00000000E+000
6.77880000E+000 2.50540000E+001 0.00000000E+000
7.31800000E+000 2.39560000E+001 0.00000000E+000
5.83470000E+000 2.65080000E+001 0.00000000E+000
5.00000000E+000 3.00000000E+001 0.00000000E+000
4.99030000E+000 2.91570000E+001 0.00000000E+000
7.85710000E+000 2.28570000E+001 0.00000000E+000
5.88780000E+000 2.55080000E+001 0.00000000E+000
4.98060000E+000 2.83140000E+001 0.00000000E+000
4.98860000E+000 2.71380000E+001 0.00000000E+000
6.14900000E+000 2.44060000E+001 0.00000000E+000
6.68820000E+000 2.33070000E+001 0.00000000E+000
4.99670000E+000 2.59620000E+001 0.00000000E+000
4.00000000E+000 3.00000000E+001 0.00000000E+000
5.25790000E+000 2.48600000E+001 0.00000000E+000
3.99030000E+000 2.91570000E+001 0.00000000E+000
7.14290000E+000 2.21430000E+001 0.00000000E+000
4.09740000E+000 2.75910000E+001 0.00000000E+000
5.51920000E+000 2.37580000E+001 0.00000000E+000
4.10540000E+000 2.64150000E+001 0.00000000E+000
5.97390000E+000 2.25930000E+001 0.00000000E+000
4.15830000E+000 2.54180000E+001 0.00000000E+000
3.10710000E+000 2.84340000E+001 0.00000000E+000
3.00000000E+000 3.00000000E+001 0.00000000E+000
4.41960000E+000 2.43150000E+001 0.00000000E+000
6.42860000E+000 2.14290000E+001 0.00000000E+000
3.21410000E+000 2.68670000E+001 0.00000000E+000
3.26710000E+000 2.58700000E+001 0.00000000E+000
4.62640000E+000 2.30640000E+001 0.00000000E+000
3.32000000E+000 2.48730000E+001 0.00000000E+000
5.08110000E+000 2.19000000E+001 0.00000000E+000
2.15090000E+000 2.88760000E+001 0.00000000E+000
2.00000000E+000 3.00000000E+001 0.00000000E+000
2.25800000E+000 2.73100000E+001 0.00000000E+000
3.52690000E+000 2.36220000E+001 0.00000000E+000
5.71430000E+000 2.07140000E+001 0.00000000E+000
2.38000000E+000 2.63190000E+001 0.00000000E+000
2.43290000E+000 2.53210000E+001 0.00000000E+000
3.73370000E+000 2.23710000E+001 0.00000000E+000
2.47680000E+000 2.43470000E+001 0.00000000E+000
4.36690000E+000 2.11850000E+001 0.00000000E+000
1.30180000E+000 2.77520000E+001 0.00000000E+000
1.15090000E+000 2.88760000E+001 0.00000000E+000
1.42380000E+000 2.67610000E+001 0.00000000E+000
1.00000000E+000 3.00000000E+001 0.00000000E+000
1.54580000E+000 2.57700000E+001 0.00000000E+000
2.68360000E+000 2.30960000E+001 0.00000000E+000
5.00000000E+000 2.00000000E+001 0.00000000E+000
1.58970000E+000 2.47950000E+001 0.00000000E+000
3.37280000E+000 2.15240000E+001 0.00000000E+000
5.69560000E-001 2.81340000E+001 0.00000000E+000
4.18670000E-001 2.92580000E+001 0.00000000E+000
2.68700000E+000 2.21010000E+001 0.00000000E+000
4.00600000E+000 2.03390000E+001 0.00000000E+000
1.63350000E+000 2.38210000E+001 0.00000000E+000
5.07760000E-001 2.71460000E+001 0.00000000E+000
5.00000000E+000 1.90000000E+001 0.00000000E+000
6.29790000E-001 2.61550000E+001 0.00000000E+000
-1.77640000E-015 3.00000000E+001 0.00000000E+000
7.74950000E-001 2.51720000E+001 0.00000000E+000
4.19640000E+000 1.94320000E+001 0.00000000E+000
1.63700000E+000 2.28260000E+001 0.00000000E+000
3.01190000E+000 2.06780000E+001 0.00000000E+000
-1.62660000E-001 2.85160000E+001 0.00000000E+000
8.18800000E-001 2.41980000E+001 0.00000000E+000
2.32610000E+000 2.12540000E+001 0.00000000E+000
-2.24470000E-001 2.75280000E+001 0.00000000E+000
-5.81330000E-001 2.92580000E+001 0.00000000E+000
3.20240000E+000 1.97710000E+001 0.00000000E+000
5.00000000E+000 1.80000000E+001 0.00000000E+000
1.64040000E+000 2.18300000E+001 0.00000000E+000
-2.86270000E-001 2.65410000E+001 0.00000000E+000
-1.41100000E-001 2.55580000E+001 0.00000000E+000
7.23650000E-001 2.32140000E+001 0.00000000E+000
4.19640000E+000 1.84320000E+001 0.00000000E+000
4.06420000E-003 2.45740000E+001 0.00000000E+000
2.34720000E+000 2.02840000E+001 0.00000000E+000
-1.00000000E+000 3.00000000E+001 0.00000000E+000
3.39280000E+000 1.88640000E+001 0.00000000E+000
1.66140000E+000 2.08610000E+001 0.00000000E+000
-1.12490000E+000 2.81960000E+001 0.00000000E+000
7.27070000E-001 2.22190000E+001 0.00000000E+000
2.53760000E+000 1.93780000E+001 0.00000000E+000
-9.10790000E-002 2.35910000E+001 0.00000000E+000
5.00000000E+000 1.70000000E+001 0.00000000E+000
-1.18670000E+000 2.72080000E+001 0.00000000E+000
-9.73980000E-001 2.61060000E+001 0.00000000E+000
-8.28820000E-001 2.51220000E+001 0.00000000E+000
-1.54360000E+000 2.89380000E+001 0.00000000E+000
4.14700000E+000 1.74440000E+001 0.00000000E+000
8.72770000E-001 2.12370000E+001 0.00000000E+000
1.68240000E+000 1.98910000E+001 0.00000000E+000
3.34350000E+000 1.78760000E+001 0.00000000E+000
-1.86220000E-001 2.26080000E+001 0.00000000E+000
-8.76430000E-001 2.41270000E+001 0.00000000E+000
-2.00000000E+000 3.00000000E+001 0.00000000E+000
2.52990000E+000 1.83800000E+001 0.00000000E+000
8.93800000E-001 2.02680000E+001 0.00000000E+000
-1.87440000E+000 2.67730000E+001 0.00000000E+000
5.00000000E+000 1.60000000E+001 0.00000000E+000
-4.05250000E-002 2.16260000E+001 0.00000000E+000
-1.66170000E+000 2.56700000E+001 0.00000000E+000
-2.08720000E+000 2.78760000E+001 0.00000000E+000
1.67470000E+000 1.88930000E+001 0.00000000E+000
4.14700000E+000 1.64440000E+001 0.00000000E+000
-9.71570000E-001 2.31430000E+001 0.00000000E+000
-1.70930000E+000 2.46750000E+001 0.00000000E+000
-2.54360000E+000 2.89380000E+001 0.00000000E+000
3.29410000E+000 1.68880000E+001 0.00000000E+000
1.05170000E-001 2.06440000E+001 0.00000000E+000
-8.55030000E-001 2.22000000E+001 0.00000000E+000
2.48060000E+000 1.73920000E+001 0.00000000E+000
7.60080000E-001 1.92910000E+001 0.00000000E+000
-1.75690000E+000 2.36790000E+001 0.00000000E+000
-7.09330000E-001 2.12180000E+001 0.00000000E+000
-3.00000000E+000 3.00000000E+001 0.00000000E+000
4.33010000E+000 1.55000000E+001 0.00000000E+000
1.66700000E+000 1.78960000E+001 0.00000000E+000
-2.58060000E+000 2.60370000E+001 0.00000000E+000
-2.79340000E+000 2.71400000E+001 0.00000000E+000
5.00000000E+000 1.50000000E+001 0.00000000E+000
-1.64040000E+000 2.27350000E+001 0.00000000E+000
3.47720000E+000 1.59440000E+001 0.00000000E+000
-2.85470000E-002 1.96680000E+001 0.00000000E+000
-2.61650000E+000 2.50880000E+001 0.00000000E+000
2.61110000E+000 1.64440000E+001 0.00000000E+000
7.52390000E-001 1.82940000E+001 0.00000000E+000
-1.52380000E+000 2.17920000E+001 0.00000000E+000
1.79760000E+000 1.69480000E+001 0.00000000E+000
-7.86590000E-001 2.02250000E+001 0.00000000E+000
-2.66410000E+000 2.40920000E+001 0.00000000E+000
-3.54360000E+000 2.79380000E+001 0.00000000E+000
3.66030000E+000 1.50000000E+001 0.00000000E+000
4.33010000E+000 1.45000000E+001 0.00000000E+000
-3.49950000E+000 2.64040000E+001 0.00000000E+000
-2.55810000E+000 2.31010000E+001 0.00000000E+000
5.00000000E+000 1.40000000E+001 0.00000000E+000
-1.62270000E-001 1.86910000E+001 0.00000000E+000
2.79420000E+000 1.55000000E+001 0.00000000E+000
-1.60110000E+000 2.07990000E+001 0.00000000E+000
8.74410000E-001 1.73040000E+001 0.00000000E+000
-4.00000000E+000 3.00000000E+001 0.00000000E+000
-4.00000000E+000 2.90000000E+001 0.00000000E+000
-3.53540000E+000 2.54550000E+001 0.00000000E+000
-2.44160000E+000 2.21580000E+001 0.00000000E+000
1.92820000E+000 1.60000000E+001 0.00000000E+000
-9.20310000E-001 1.92480000E+001 0.00000000E+000
-3.57130000E+000 2.45060000E+001 0.00000000E+000
-4.02470000E-002 1.77020000E+001 0.00000000E+000
-4.24980000E+000 2.72020000E+001 0.00000000E+000
1.00500000E+000 1.63560000E+001 0.00000000E+000
-1.67830000E+000 1.98050000E+001 0.00000000E+000
-3.46530000E+000 2.35140000E+001 0.00000000E+000
-2.51060000E+000 2.12060000E+001 0.00000000E+000
3.66030000E+000 1.40000000E+001 0.00000000E+000
-4.24980000E+000 2.62020000E+001 0.00000000E+000
-7.93430000E-001 1.83160000E+001 0.00000000E+000
4.33010000E+000 1.35000000E+001 0.00000000E+000
5.00000000E+000 1.30000000E+001 0.00000000E+000
2.79420000E+000 1.45000000E+001 0.00000000E+000
[...]
POINT_DATA      908
SCALARS Ux float
LOOKUP_TABLE default
1.00000000E+000
9.99677591E-001
1.00000000E+000
9.98968278E-001
9.98414334E-001
1.00000000E+000
9.98346302E-001
9.96556022E-001
1.00000000E+000
9.95993553E-001
9.93634536E-001
1.00000000E+000
9.95964351E-001
9.92129739E-001
9.90083557E-001
1.00000000E+000
9.91123780E-001
9.94783730E-001
9.88154740E-001
9.85655144E-001
1.00000000E+000
9.87508297E-001
9.90369337E-001
9.84249430E-001
9.95289982E-001
9.86214209E-001
9.83272466E-001
9.90007300E-001
9.80717775E-001
1.00000000E+000
9.79011820E-001
9.94155488E-001
9.79496370E-001
9.83062133E-001
9.75067323E-001
1.00000000E+000
9.85950082E-001
9.74526640E-001
9.90942977E-001
9.75100271E-001
9.69033646E-001
9.69073630E-001
1.00000000E+000
9.77101656E-001
9.68649229E-001
9.80213922E-001
9.88678616E-001
9.69964145E-001
9.62554397E-001
9.62526499E-001
1.00000000E+000
9.71746569E-001
9.62627196E-001
9.63044177E-001
9.76963886E-001
9.86825767E-001
9.63793056E-001
9.55987693E-001
9.67166408E-001
9.55880197E-001
1.00000000E+000
9.56592400E-001
9.72429618E-001
9.56347936E-001
9.82301558E-001
9.56879336E-001
9.49975877E-001
9.49536528E-001
9.59178000E-001
1.00000000E+000
9.49741091E-001
9.49289883E-001
9.63445308E-001
9.48523902E-001
9.73176695E-001
9.44060269E-001
9.43297174E-001
9.43274185E-001
9.48747421E-001
1.00000000E+000
9.42887763E-001
9.41201893E-001
9.48825789E-001
9.39298763E-001
9.57692133E-001
9.37776004E-001
9.38140419E-001
9.36963795E-001
9.37648460E-001
9.35447885E-001
9.36458902E-001
1.00000000E+000
9.32847513E-001
9.39717220E-001
9.34058220E-001
9.34406354E-001
9.31402650E-001
9.41913029E-001
9.29084578E-001
9.32097818E-001
9.14443249E-001
9.30187387E-001
9.32446158E-001
9.27977602E-001
9.23558854E-001
9.23723199E-001
9.22432954E-001
9.30876436E-001
9.23793712E-001
9.18774248E-001
9.29090828E-001
9.29687629E-001
9.13816007E-001
8.78576356E-001
9.15816554E-001
9.26205325E-001
9.23689347E-001
9.17448751E-001
8.91701806E-001
9.20049167E-001
9.06797509E-001
9.28141970E-001
8.93071849E-001
9.06053866E-001
9.26129763E-001
9.09671628E-001
8.94761965E-001
9.13919858E-001
8.51376928E-001
9.23824634E-001
9.21346360E-001
9.17849294E-001
9.25689492E-001
8.62000914E-001
9.01611132E-001
8.92911297E-001
8.68665432E-001
9.05813170E-001
9.12251784E-001
9.24512479E-001
8.73334887E-001
8.89991179E-001
9.20111947E-001
8.27646687E-001
8.98117238E-001
9.16634827E-001
9.22222740E-001
8.76241540E-001
8.37478678E-001
9.04989585E-001
9.11646737E-001
9.22688584E-001
8.45235247E-001
8.88126556E-001
8.97838652E-001
8.52447340E-001
8.74514434E-001
9.05048468E-001
8.88990519E-001
9.22039601E-001
8.16032996E-001
8.57271414E-001
9.14954961E-001
9.18417861E-001
8.05277117E-001
8.98492588E-001
8.24410781E-001
8.74556600E-001
9.10464411E-001
8.32492623E-001
8.58360435E-001
8.90383539E-001
8.39434375E-001
8.76789315E-001
9.04378170E-001
9.18743316E-001
8.04407801E-001
7.94536229E-001
9.14414076E-001
8.97628911E-001
7.84263604E-001
8.59123322E-001
8.13353801E-001
8.79663783E-001
8.41256278E-001
9.20369875E-001
9.20026643E-001
9.10357620E-001
8.89864422E-001
8.20852328E-001
8.63194472E-001
9.04918659E-001
8.43905838E-001
9.16205519E-001
8.24395611E-001
8.67084957E-001
8.98566186E-001
8.80196628E-001
7.83530778E-001
9.12569967E-001
8.49946964E-001
7.73859534E-001
7.63856672E-001
7.92603808E-001
8.90641085E-001
9.08221190E-001
8.00835338E-001
8.55110398E-001
8.27186775E-001
9.20026643E-001
9.19676512E-001
9.17986093E-001
8.08139477E-001
9.02266146E-001
8.68669111E-001
8.34819927E-001
9.15388628E-001
8.81695188E-001
8.95400093E-001
8.41649339E-001
9.11464030E-001
7.63435225E-001
7.53861235E-001
8.12045495E-001
7.72621405E-001
8.56449308E-001
7.44105113E-001
9.06657783E-001
7.81139239E-001
8.86853445E-001
8.71209543E-001
8.18030415E-001
7.89163974E-001
9.00332477E-001
8.43811164E-001
8.26186076E-001
7.96461297E-001
8.59680558E-001
8.77608040E-001
8.93030056E-001
7.44705732E-001
7.52888820E-001
8.03338690E-001
8.31516694E-001
7.35327962E-001
7.61640915E-001
7.24665261E-001
8.46654504E-001
8.84070684E-001
8.66466036E-001
7.69962446E-001
8.09808491E-001
7.77909022E-001
8.54464709E-001
8.74088462E-001
8.35014422E-001
8.16154391E-001
7.85329512E-001
7.34512315E-001
7.26401268E-001
7.42415033E-001
7.16102297E-001
7.92643380E-001
7.05618768E-001
8.62506092E-001
7.51013620E-001
8.40879680E-001
8.22543746E-001
7.59233522E-001
7.99560343E-001
7.67220099E-001
8.49986527E-001
8.29068308E-001
7.74920741E-001
8.06723811E-001
7.07576646E-001
7.16306964E-001
7.24208172E-001
6.97387671E-001
7.32026265E-001
6.86785171E-001
7.82506940E-001
7.40525067E-001
8.36034289E-001
8.13744024E-001
7.48771664E-001
7.90054507E-001
7.56944838E-001
8.21331977E-001
6.89021574E-001
6.97686610E-001
7.06208731E-001
7.64881899E-001
6.78687911E-001
7.14062083E-001
7.97675113E-001
7.21796593E-001
6.68269063E-001
7.30295716E-001
7.72951438E-001
8.05568133E-001
7.38671048E-001
7.80912294E-001
6.79654410E-001
6.71236134E-001
6.88125520E-001
7.46993412E-001
6.61053368E-001
6.95277402E-001
7.03067628E-001
7.55304232E-001
7.89242307E-001
7.11662238E-001
6.49961194E-001
7.20255849E-001
7.63660797E-001
7.28764473E-001
6.61995141E-001
6.70201977E-001
6.53724935E-001
6.77290950E-001
7.72193664E-001
7.37383356E-001
6.84350365E-001
6.42865892E-001
6.92992589E-001
7.45954452E-001
7.01660546E-001
6.32013090E-001
7.10353708E-001
7.54773390E-001
6.51866458E-001
6.43871062E-001
7.19109172E-001
6.58706047E-001
6.36462059E-001
6.65651002E-001
6.74265541E-001
7.27923300E-001
6.25928966E-001
6.82967827E-001
6.91730620E-001
7.36876348E-001
6.14343183E-001
7.00645056E-001
6.33759004E-001
6.40348375E-001
6.26586994E-001
7.09584899E-001
6.46999099E-001
6.19454777E-001
6.55463164E-001
6.64129857E-001
7.18729158E-001
6.08382915E-001
6.72924927E-001
6.81904341E-001
5.97224424E-001
6.25123068E-001
6.90991430E-001
6.16944208E-001
6.31516685E-001
6.10076934E-001
6.02230169E-001
6.36681461E-001
7.00237724E-001
6.45198888E-001
6.53961072E-001
5.91670210E-001
6.62988909E-001
6.72144823E-001
5.80500847E-001
6.07982952E-001
6.15979841E-001
6.00278212E-001
6.81544084E-001
5.92919527E-001
6.20928814E-001
5.85585044E-001
6.26107389E-001
6.34734630E-001
6.43766390E-001
5.75125316E-001
6.53014350E-001
5.64596092E-001
6.62521400E-001
5.97360847E-001
5.89984252E-001
6.03074063E-001
5.82750570E-001
5.76074066E-001
6.07942119E-001
6.16289026E-001
5.69096856E-001
6.25255703E-001
6.33583867E-001
5.59415689E-001
6.43264867E-001
5.78923257E-001
5.49275745E-001
5.72184599E-001
5.84016516E-001
5.89571371E-001
5.65824181E-001
5.97542372E-001
5.59700343E-001
6.06315502E-001
5.53491169E-001
6.14672616E-001
6.23545048E-001
5.44367751E-001
5.60708167E-001
5.66037618E-001
5.55075368E-001
5.70886232E-001
5.79172868E-001
5.35106913E-001
5.49382555E-001
5.87682057E-001
5.44237785E-001
5.39465877E-001
5.94327725E-001
6.03442884E-001
5.31284571E-001
5.47183840E-001
5.59322972E-001
5.43099796E-001
5.51988779E-001
5.68278958E-001
5.38447864E-001
5.34007159E-001
5.21714340E-001
5.30525893E-001
5.74821588E-001
5.26553743E-001
5.82450425E-001
5.18188936E-001
5.26800039E-001
5.39109189E-001
5.47044914E-001
5.29663136E-001
5.32847531E-001
5.23644936E-001
5.52668522E-001
5.19971603E-001
5.17465925E-001
5.09799877E-001
5.13757738E-001
5.60671289E-001
5.06608959E-001
5.12072686E-001
5.13146849E-001
5.24420310E-001
5.17901831E-001
5.14298420E-001
5.09901483E-001
5.28522429E-001
5.07449226E-001
5.05354607E-001
5.36824048E-001
4.98832522E-001
5.02507049E-001
4.96006429E-001
4.98283418E-001
4.99514316E-001
4.97148719E-001
4.97935329E-001
4.97828273E-001
5.02099422E-001
4.97144314E-001
4.95524141E-001
5.09329766E-001
4.94453739E-001
4.92269034E-001
4.89548282E-001
4.80377123E-001
4.82730649E-001
4.77344717E-001
4.84501304E-001
4.87119159E-001
4.85540954E-001
4.72085618E-001
4.85822506E-001
4.62448144E-001
4.85387837E-001
4.85049833E-001
4.83728764E-001
4.81323029E-001
4.68652163E-001
4.62786570E-001
4.16044730E-001
4.69792997E-001
4.73027983E-001
4.75168990E-001
4.79285395E-001
4.76571092E-001
4.47116311E-001
4.76796379E-001
4.35032188E-001
4.77264350E-001
3.86063488E-001
4.52788219E-001
4.76316184E-001
4.74892613E-001
4.56505247E-001
4.59206886E-001
4.63691452E-001
4.08370280E-001
4.66867144E-001
4.38441937E-001
4.73216596E-001
4.68883925E-001
3.61913679E-001
4.70010442E-001
4.70858033E-001
4.19185397E-001
3.81805423E-001
4.70714941E-001
4.37465327E-001
4.69552100E-001
4.43028557E-001
4.50593425E-001
4.55961081E-001
3.39372930E-001
3.97650685E-001
4.59337150E-001
4.22839817E-001
4.62304946E-001
4.68281615E-001
3.57904473E-001
4.63859913E-001
3.75125863E-001
4.00302829E-001
4.65458942E-001
3.17509170E-001
4.24805008E-001
4.35914250E-001
4.65918437E-001
3.36649007E-001
4.44324712E-001
4.49547495E-001
4.53695917E-001
3.80314301E-001
3.53613728E-001
4.64887230E-001
4.06240180E-001
4.57405437E-001
2.96462927E-001
3.15015088E-001
4.60024786E-001
3.60247348E-001
4.21311226E-001
3.84067838E-001
3.33128496E-001
4.32327663E-001
4.07008926E-001
4.63547472E-001
4.38734498E-001
4.49514467E-001
4.44585875E-001
4.63047070E-001
3.65785921E-001
3.40493497E-001
2.75783616E-001
4.54304409E-001
3.87092328E-001
2.90273151E-001
3.08158439E-001
4.59180405E-001
4.19682604E-001
3.46855534E-001
4.05996595E-001
3.69832281E-001
3.19764944E-001
4.28064976E-001
4.54768857E-001
4.46880930E-001
4.63059631E-001
3.89804414E-001
4.41602054E-001
2.55453361E-001
4.35335842E-001
2.69743204E-001
4.62552088E-001
3.52161493E-001
2.83866393E-001
3.26882505E-001
3.73906675E-001
4.60098822E-001
4.48523636E-001
2.95640199E-001
4.07876173E-001
2.35289924E-001
3.92662891E-001
3.33818540E-001
4.56454152E-001
3.56925205E-001
3.06901020E-001
4.41110853E-001
2.46799588E-001
4.34745900E-001
2.60833242E-001
3.79276627E-001
2.77476953E-001
4.50956057E-001
4.15449235E-001
3.39527225E-001
3.14488068E-001
4.24878079E-001
2.88970406E-001
4.44307966E-001
2.15293278E-001
3.63662107E-001
3.96346898E-001
2.26736336E-001
3.21581656E-001
4.35918657E-001
2.95706062E-001
2.38110111E-001
2.54732311E-001
3.83942334E-001
2.71099790E-001
3.44656229E-001
4.05734331E-001
1.96697643E-001
4.26481756E-001
3.70435389E-001
3.03309527E-001
2.78118058E-001
2.05958376E-001
3.27612195E-001
3.92200204E-001
2.17316199E-001
4.15337863E-001
3.52596258E-001
2.28382916E-001
3.09490964E-001
2.44840523E-001
2.84861509E-001
3.79649293E-001
1.78170861E-001
2.60639015E-001
4.03085967E-001
1.87428975E-001
3.33677311E-001
2.91485774E-001
3.64242535E-001
2.67638259E-001
1.96637986E-001
3.89369460E-001
2.07748767E-001
3.16139487E-001
1.61050870E-001
2.18737416E-001
2.34670608E-001
2.74527579E-001
1.69612982E-001
3.46427148E-001
2.97965206E-001
2.50351259E-001
3.74932668E-001
1.78860703E-001
3.20992722E-001
1.43903038E-001
1.89249852E-001
2.81341938E-001
2.57467188E-001
3.29482391E-001
3.03130422E-001
2.00295100E-001
2.15457265E-001
3.59326352E-001
1.52501078E-001
2.31284693E-001
1.61105094E-001
2.86201061E-001
2.64482817E-001
1.28078484E-001
2.39467005E-001
1.71555619E-001
3.43176267E-001
3.08416472E-001
1.97104479E-001
1.36037323E-001
1.81912589E-001
2.12202529E-001
3.17295623E-001
2.69527170E-001
2.91683685E-001
2.46671531E-001
1.44763796E-001
3.26207871E-001
2.20508920E-001
1.12072094E-001
2.74591297E-001
1.52884730E-001
1.20207329E-001
2.99816989E-001
2.52504456E-001
1.93656374E-001
1.78522574E-001
1.63287429E-001
2.28739810E-001
3.08969148E-001
1.28364137E-001
9.72974283E-002
2.82904017E-001
2.02042615E-001
2.57711284E-001
1.36666581E-001
1.04816602E-001
2.34698226E-001
1.75142832E-001
2.10369377E-001
1.59998443E-001
2.91311895E-001
1.13306999E-001
1.44759853E-001
2.65699760E-001
8.20046146E-002
2.40646565E-001
1.83574056E-001
2.18350678E-001
8.99219548E-002
1.19655571E-001
2.74277814E-001
1.91953236E-001
9.80501956E-002
2.48788982E-001
1.27924989E-001
6.76080253E-002
2.24404048E-001
1.52859534E-001
1.67896443E-001
7.51092588E-002
1.37772284E-001
1.04815253E-001
2.00001738E-001
8.39365061E-002
2.56981628E-001
1.76288069E-001
2.32156646E-001
5.17592125E-002
1.11225405E-001
2.08052552E-001
6.06226714E-002
9.03946441E-002
1.84470117E-001
1.21139874E-001
6.92722777E-002
2.40456727E-001
1.30766222E-001
1.45675783E-001
3.16963800E-002
2.15895170E-001
1.60625868E-001
9.72281512E-002
1.92562798E-001
7.69226638E-002
1.68802542E-001
2.23772524E-001
1.03186613E-001
1.56125113E-016
3.01785866E-002
1.99996873E-001
8.34157068E-002
1.12692795E-001
1.77017554E-001
4.46605852E-002
5.80502352E-002
1.54110730E-001
2.07924344E-001
2.25514052E-016
8.96741578E-002
1.22998738E-001
1.37731585E-001
1.62861064E-002
1.84464070E-001
6.59903784E-002
1.62311689E-001
9.50751589E-002
1.21213803E-016
1.91989629E-001
1.05019218E-002
2.31071314E-002
7.26591727E-002
1.69342257E-001
1.04993145E-001
3.80132769E-002
1.47547840E-001
4.95012349E-002
1.31074539E-001
7.81931990E-002
2.18358318E-016
1.76899989E-001
1.14892125E-001
8.37055984E-003
1.54579894E-001
5.69170554E-002
1.33619957E-001
1.60544825E-002
1.17193906E-001
1.61714948E-001
3.21357524E-016
6.23968963E-002
1.40208579E-001
2.67083088E-002
7.97978242E-002
3.62135577E-002
6.02378607E-003
1.19601225E-001
1.04169441E-001
1.47374965E-001
8.83993376E-002
1.71954465E-016
1.26145186E-001
1.12697911E-002
4.26519087E-002
6.39657428E-002
1.06352320E-001
5.02569294E-003
1.95397910E-002
1.32918809E-001
2.86663054E-016
1.12410923E-001
2.58702816E-002
9.66409417E-003
9.28521516E-002
1.19238117E-001
7.68743445E-002
4.25448935E-003
4.13772553E-002
6.28610058E-002
9.88388750E-002
1.58633454E-002
5.22151766E-016
1.05315328E-001
7.86047000E-002
7.56932777E-003
6.31486728E-002
8.54471207E-002
3.55680326E-003
2.68614337E-002
3.59087760E-016
4.00733961E-002
9.20445962E-002
5.27847702E-002
1.55863358E-002
6.35552822E-002
3.47270694E-003
7.03834492E-002
3.90312782E-016
7.81982136E-002
8.40391734E-003
5.14727551E-002
3.76267010E-002
2.39022386E-002
5.64463210E-002
4.97865638E-016
6.47538861E-002
3.95948039E-002
1.51413486E-002
3.96566897E-003
4.19045441E-002
5.00323161E-002
4.87457297E-016
7.32249055E-003
2.22674875E-002
1.47185143E-002
2.37039799E-002
2.66646007E-002
3.44012070E-003
1.56455317E-002
3.26247340E-002
4.75531073E-016
8.11162061E-003
3.38836491E-003
1.49312050E-002
1.35652221E-002
1.94289029E-016
3.21357524E-016
3.81031436E-003
7.57438544E-003
1.16083408E-002
9.10555213E-003
8.17940908E-003
3.57353036E-016
3.50414142E-016
7.86724198E-003
6.72659150E-003
3.47751989E-003
3.59087760E-016
6.08024492E-003
2.54136989E-016
3.63337329E-003
3.62395680E-003
3.07046055E-016
4.28616025E-003
7.67615138E-017
3.63791986E-003
3.78169718E-016
-7.80625564E-018
3.46944695E-016
1.77375475E-016
2.49800181E-016
1.89518540E-016
2.68882139E-016
2.22044605E-016
