# vtk DataFile Version 1.0
ECM-CELL DIFFUSION-MECHANICS
ASCII

DATASET UNSTRUCTURED_GRID
POINTS      916 float
1.50000000E+001 3.00000000E+001 0.00000000E+000
1.40000000E+001 3.00000000E+001 0.00000000E+000
1.42860000E+001 2.92860000E+001 0.00000000E+000
1.38220000E+001 2.95110000E+001 0.00000000E+000
1.31920000E+001 2.92480000E+001 0.00000000E+000
1.30000000E+001 3.00000000E+001 0.00000000E+000
1.35710000E+001 2.85710000E+001 0.00000000E+000
1.23740000E+001 2.89100000E+001 0.00000000E+000
1.20000000E+001 3.00000000E+001 0.00000000E+000
1.28570000E+001 2.78570000E+001 0.00000000E+000
1.14690000E+001 2.85460000E+001 0.00000000E+000
1.10000000E+001 3.00000000E+001 0.00000000E+000
1.21430000E+001 2.71430000E+001 0.00000000E+000
1.00000000E+001 3.00000000E+001 0.00000000E+000
1.03580000E+001 2.81300000E+001 0.00000000E+000
1.14290000E+001 2.64290000E+001 0.00000000E+000
9.15040000E+000 2.86920000E+001 0.00000000E+000
9.00000000E+000 3.00000000E+001 0.00000000E+000
1.07140000E+001 2.57140000E+001 0.00000000E+000
9.72130000E+000 2.69890000E+001 0.00000000E+000
9.07950000E+000 2.78020000E+001 0.00000000E+000
8.16360000E+000 2.88340000E+001 0.00000000E+000
8.00000000E+000 3.00000000E+001 0.00000000E+000
8.33620000E+000 2.77140000E+001 0.00000000E+000
1.00000000E+001 2.50000000E+001 0.00000000E+000
8.73300000E+000 2.63120000E+001 0.00000000E+000
7.14370000E+000 2.89120000E+001 0.00000000E+000
7.00000000E+000 3.00000000E+001 0.00000000E+000
7.28610000E+000 2.78470000E+001 0.00000000E+000
9.28570000E+000 2.42860000E+001 0.00000000E+000
7.37330000E+000 2.67010000E+001 0.00000000E+000
8.21740000E+000 2.51480000E+001 0.00000000E+000
6.12510000E+000 2.89680000E+001 0.00000000E+000
7.16330000E+000 2.56950000E+001 0.00000000E+000
6.24030000E+000 2.79500000E+001 0.00000000E+000
6.00000000E+000 3.00000000E+001 0.00000000E+000
8.57140000E+000 2.35710000E+001 0.00000000E+000
6.28440000E+000 2.69290000E+001 0.00000000E+000
7.66110000E+000 2.42790000E+001 0.00000000E+000
6.20650000E+000 2.60190000E+001 0.00000000E+000
6.76840000E+000 2.48430000E+001 0.00000000E+000
5.10610000E+000 2.89950000E+001 0.00000000E+000
5.20890000E+000 2.79980000E+001 0.00000000E+000
5.00000000E+000 3.00000000E+001 0.00000000E+000
7.85710000E+000 2.28570000E+001 0.00000000E+000
5.28570000E+000 2.70200000E+001 0.00000000E+000
5.96280000E+000 2.52640000E+001 0.00000000E+000
7.02120000E+000 2.34990000E+001 0.00000000E+000
5.31560000E+000 2.61360000E+001 0.00000000E+000
6.21780000E+000 2.40970000E+001 0.00000000E+000
5.39320000E+000 2.55440000E+001 0.00000000E+000
5.44740000E+000 2.46300000E+001 0.00000000E+000
4.08330000E+000 2.89980000E+001 0.00000000E+000
4.00000000E+000 3.00000000E+001 0.00000000E+000
4.15910000E+000 2.79780000E+001 0.00000000E+000
7.14290000E+000 2.21430000E+001 0.00000000E+000
4.22690000E+000 2.69510000E+001 0.00000000E+000
6.34880000E+000 2.27610000E+001 0.00000000E+000
4.79360000E+000 2.51850000E+001 0.00000000E+000
4.37670000E+000 2.59610000E+001 0.00000000E+000
5.55660000E+000 2.33580000E+001 0.00000000E+000
4.77700000E+000 2.39610000E+001 0.00000000E+000
3.04470000E+000 2.89930000E+001 0.00000000E+000
3.00000000E+000 3.00000000E+001 0.00000000E+000
3.07880000E+000 2.79490000E+001 0.00000000E+000
6.42860000E+000 2.14290000E+001 0.00000000E+000
3.95690000E+000 2.46060000E+001 0.00000000E+000
5.64230000E+000 2.19980000E+001 0.00000000E+000
3.08630000E+000 2.68450000E+001 0.00000000E+000
4.85570000E+000 2.25900000E+001 0.00000000E+000
3.07120000E+000 2.55350000E+001 0.00000000E+000
4.04940000E+000 2.31710000E+001 0.00000000E+000
2.00000000E+000 3.00000000E+001 0.00000000E+000
2.00790000E+000 2.89930000E+001 0.00000000E+000
5.71430000E+000 2.07140000E+001 0.00000000E+000
1.99890000E+000 2.79730000E+001 0.00000000E+000
4.93310000E+000 2.11910000E+001 0.00000000E+000
3.14750000E+000 2.37290000E+001 0.00000000E+000
1.92540000E+000 2.69290000E+001 0.00000000E+000
4.16060000E+000 2.17860000E+001 0.00000000E+000
1.67700000E+000 2.58840000E+001 0.00000000E+000
3.33840000E+000 2.22990000E+001 0.00000000E+000
1.00000000E+000 3.00000000E+001 0.00000000E+000
9.87970000E-001 2.90050000E+001 0.00000000E+000
2.09360000E+000 2.43280000E+001 0.00000000E+000
5.00000000E+000 2.00000000E+001 0.00000000E+000
9.62140000E-001 2.79930000E+001 0.00000000E+000
9.15140000E-001 2.70070000E+001 0.00000000E+000
4.22140000E+000 2.02500000E+001 0.00000000E+000
2.38890000E+000 2.27340000E+001 0.00000000E+000
3.50970000E+000 2.09590000E+001 0.00000000E+000
8.34270000E-001 2.61980000E+001 0.00000000E+000
5.00000000E+000 1.90000000E+001 0.00000000E+000
2.71380000E+000 2.14220000E+001 0.00000000E+000
1.77640000E-015 3.00000000E+001 0.00000000E+000
8.62920000E-001 2.48760000E+001 0.00000000E+000
-2.63010000E-002 2.90000000E+001 0.00000000E+000
-5.65980000E-002 2.79730000E+001 0.00000000E+000
3.51430000E+000 1.98930000E+001 0.00000000E+000
1.27860000E+000 2.31760000E+001 0.00000000E+000
4.17430000E+000 1.91510000E+001 0.00000000E+000
-9.34870000E-002 2.69000000E+001 0.00000000E+000
2.96680000E+000 2.01870000E+001 0.00000000E+000
1.79120000E+000 2.17310000E+001 0.00000000E+000
5.00000000E+000 1.80000000E+001 0.00000000E+000
-1.14700000E-001 2.57090000E+001 0.00000000E+000
3.39550000E+000 1.91890000E+001 0.00000000E+000
2.20280000E+000 2.04980000E+001 0.00000000E+000
-1.00000000E+000 3.00000000E+001 0.00000000E+000
-1.03490000E+000 2.90030000E+001 0.00000000E+000
4.13540000E+000 1.81470000E+001 0.00000000E+000
-1.07560000E+000 2.79760000E+001 0.00000000E+000
2.64020000E+000 1.93960000E+001 0.00000000E+000
7.29260000E-001 2.19780000E+001 0.00000000E+000
5.00000000E+000 1.70000000E+001 0.00000000E+000
-1.13370000E+000 2.69380000E+001 0.00000000E+000
-2.04240000E-001 2.35850000E+001 0.00000000E+000
1.31890000E+000 2.07030000E+001 0.00000000E+000
3.28250000E+000 1.82960000E+001 0.00000000E+000
-1.22720000E+000 2.59400000E+001 0.00000000E+000
1.85050000E+000 1.95870000E+001 0.00000000E+000
-9.48340000E-001 2.46660000E+001 0.00000000E+000
4.11030000E+000 1.71470000E+001 0.00000000E+000
-2.00000000E+000 3.00000000E+001 0.00000000E+000
2.45080000E+000 1.84900000E+001 0.00000000E+000
-2.03650000E+000 2.90070000E+001 0.00000000E+000
-1.46080000E+000 2.52180000E+001 0.00000000E+000
-2.07700000E+000 2.79900000E+001 0.00000000E+000
5.00000000E+000 1.60000000E+001 0.00000000E+000
3.19780000E-001 2.08470000E+001 0.00000000E+000
3.22740000E+000 1.73070000E+001 0.00000000E+000
-2.12220000E+000 2.69620000E+001 0.00000000E+000
9.83390000E-001 1.96980000E+001 0.00000000E+000
-5.09100000E-001 2.21000000E+001 0.00000000E+000
1.61400000E+000 1.86400000E+001 0.00000000E+000
4.09720000E+000 1.61430000E+001 0.00000000E+000
-2.16930000E+000 2.59760000E+001 0.00000000E+000
2.36130000E+000 1.75130000E+001 0.00000000E+000
-2.19100000E+000 2.50810000E+001 0.00000000E+000
-1.98280000E+000 2.42220000E+001 0.00000000E+000
-3.00000000E+000 3.00000000E+001 0.00000000E+000
5.00000000E+000 1.50000000E+001 0.00000000E+000
-3.02860000E+000 2.90070000E+001 0.00000000E+000
-1.73170000E+000 2.31840000E+001 0.00000000E+000
3.20280000E+000 1.63040000E+001 0.00000000E+000
1.75390000E-002 1.97880000E+001 0.00000000E+000
-3.06250000E+000 2.80090000E+001 0.00000000E+000
7.46600000E-001 1.87140000E+001 0.00000000E+000
-7.72460000E-001 2.08950000E+001 0.00000000E+000
1.48290000E+000 1.76590000E+001 0.00000000E+000
-3.09400000E+000 2.69770000E+001 0.00000000E+000
4.08650000E+000 1.51350000E+001 0.00000000E+000
2.31320000E+000 1.64940000E+001 0.00000000E+000
-3.11700000E+000 2.59640000E+001 0.00000000E+000
-1.77210000E+000 2.20110000E+001 0.00000000E+000
-3.10560000E+000 2.49960000E+001 0.00000000E+000
5.00000000E+000 1.40000000E+001 0.00000000E+000
3.17620000E+000 1.52860000E+001 0.00000000E+000
-1.88800000E-001 1.87590000E+001 0.00000000E+000
5.99420000E-001 1.77190000E+001 0.00000000E+000
-3.01060000E+000 2.40530000E+001 0.00000000E+000
-9.89990000E-001 1.97900000E+001 0.00000000E+000
-4.00000000E+000 3.00000000E+001 0.00000000E+000
-4.01530000E+000 2.90100000E+001 0.00000000E+000
1.42680000E+000 1.66430000E+001 0.00000000E+000
-4.03230000E+000 2.80050000E+001 0.00000000E+000
-1.89130000E+000 2.08830000E+001 0.00000000E+000
-2.92520000E+000 2.30180000E+001 0.00000000E+000
4.07530000E+000 1.41270000E+001 0.00000000E+000
-4.04730000E+000 2.69900000E+001 0.00000000E+000
2.28060000E+000 1.54520000E+001 0.00000000E+000
-4.06300000E+000 2.59770000E+001 0.00000000E+000
-3.18600000E-001 1.77540000E+001 0.00000000E+000
5.27690000E-001 1.67110000E+001 0.00000000E+000
-1.13790000E+000 1.87630000E+001 0.00000000E+000
-2.93690000E+000 2.19150000E+001 0.00000000E+000
3.15000000E+000 1.42700000E+001 0.00000000E+000
-4.04930000E+000 2.49870000E+001 0.00000000E+000
5.00000000E+000 1.30000000E+001 0.00000000E+000
1.38360000E+000 1.56010000E+001 0.00000000E+000
-2.01980000E+000 1.98030000E+001 0.00000000E+000
-4.01430000E+000 2.40010000E+001 0.00000000E+000
-5.00000000E+000 3.00000000E+001 0.00000000E+000
-5.00000000E+000 2.90000000E+001 0.00000000E+000
-5.00000000E+000 2.80000000E+001 0.00000000E+000
4.06800000E+000 1.31200000E+001 0.00000000E+000
2.24940000E+000 1.44260000E+001 0.00000000E+000
-2.97810000E+000 2.08670000E+001 0.00000000E+000
-5.00000000E+000 2.70000000E+001 0.00000000E+000
-3.98160000E+000 2.29910000E+001 0.00000000E+000
-3.76220000E-001 1.67450000E+001 0.00000000E+000
-1.24900000E+000 1.77420000E+001 0.00000000E+000
4.83520000E-001 1.56830000E+001 0.00000000E+000
-5.00000000E+000 2.60000000E+001 0.00000000E+000
-2.12400000E+000 1.87590000E+001 0.00000000E+000
3.13940000E+000 1.32530000E+001 0.00000000E+000
5.00000000E+000 1.20000000E+001 0.00000000E+000
1.34820000E+000 1.45660000E+001 0.00000000E+000
-5.00000000E+000 2.50000000E+001 0.00000000E+000
-3.98700000E+000 2.19450000E+001 0.00000000E+000
-3.03080000E+000 1.98440000E+001 0.00000000E+000
-5.00000000E+000 2.40000000E+001 0.00000000E+000
2.22450000E+000 1.33970000E+001 0.00000000E+000
4.05960000E+000 1.21120000E+001 0.00000000E+000
[...]
POINT_DATA      916
SCALARS Ux float
LOOKUP_TABLE default
1.00000000E+000
1.14108992E+000
1.00000000E+000
1.16120014E+000
1.28280893E+000
1.56979951E+000
1.00000000E+000
1.65199202E+000
2.21697784E+000
1.00000000E+000
2.00400520E+000
3.06374497E+000
1.00000000E+000
3.82709963E+000
3.11775731E+000
1.00000000E+000
4.40309929E+000
4.69527006E+000
1.00000000E+000
2.98589141E+000
4.02713149E+000
5.50525309E+000
5.75730472E+000
4.92380199E+000
1.00000000E+000
3.59858710E+000
6.63398610E+000
6.88502673E+000
6.29797288E+000
1.00000000E+000
5.20191712E+000
3.32243130E+000
7.82247440E+000
5.00627253E+000
7.41742870E+000
8.04520967E+000
1.00000000E+000
6.86665771E+000
3.16133817E+000
6.46813626E+000
4.95225745E+000
9.03268214E+000
8.71918858E+000
9.22759383E+000
1.00000000E+000
8.43069630E+000
6.38059400E+000
3.21240082E+000
7.43793440E+000
5.16139764E+000
7.26942760E+000
6.80449679E+000
1.02526148E+001
1.04005217E+001
1.00357913E+001
1.00000000E+000
9.68873229E+000
3.43395722E+000
8.09781800E+000
8.98499326E+000
5.65228448E+000
7.56093339E+000
1.14484092E+001
1.15358593E+001
1.13167030E+001
1.00000000E+000
9.29310904E+000
3.88031531E+000
1.11490492E+001
6.44484899E+000
1.11379420E+001
8.63400570E+000
1.26111613E+001
1.25869538E+001
1.00000000E+000
1.25534629E+001
4.72640941E+000
1.05990154E+001
1.25673226E+001
7.80492335E+000
1.27201649E+001
1.01136635E+001
1.36087030E+001
1.36306421E+001
1.24027157E+001
1.00000000E+000
1.36801676E+001
1.37773972E+001
7.64208166E+000
1.20934214E+001
1.01064957E+001
1.40007135E+001
1.10369819E+001
1.18847518E+001
1.44990804E+001
1.39963752E+001
1.45509209E+001
1.46551506E+001
1.14029001E+001
1.40849685E+001
1.14288497E+001
1.48510205E+001
1.22415636E+001
1.36503082E+001
1.59062508E+001
1.50724116E+001
1.34373341E+001
1.39917447E+001
1.52579748E+001
1.53164963E+001
1.59107061E+001
1.54583294E+001
1.47980778E+001
1.49364875E+001
1.94799603E+001
1.56982289E+001
1.58503259E+001
1.48783188E+001
1.64796016E+001
1.61315569E+001
1.60936303E+001
1.61107326E+001
1.93221544E+001
1.58683726E+001
1.73356250E+001
1.59436038E+001
1.64417927E+001
1.59996497E+001
2.23773035E+001
1.75281504E+001
1.95259554E+001
1.63821397E+001
1.78584266E+001
1.74495392E+001
1.83970164E+001
2.21850235E+001
1.67809662E+001
1.98904185E+001
1.69994164E+001
1.72701437E+001
1.63458164E+001
2.48555870E+001
1.63428592E+001
1.77394327E+001
2.21904812E+001
1.87588155E+001
1.66800500E+001
1.94623829E+001
1.85322474E+001
2.05761904E+001
1.68608524E+001
2.46635743E+001
2.23466555E+001
1.71864267E+001
1.85797713E+001
1.75676247E+001
2.70323048E+001
2.45912132E+001
2.05752136E+001
2.13590804E+001
1.80044238E+001
2.00111876E+001
1.66628740E+001
1.67680788E+001
2.27473112E+001
1.69212903E+001
1.96490554E+001
1.86083770E+001
2.68500950E+001
1.71728971E+001
2.46376124E+001
1.74953214E+001
2.22401933E+001
2.34811005E+001
2.14453224E+001
1.94297644E+001
2.67462849E+001
1.79062846E+001
2.89774357E+001
2.48122179E+001
2.08529703E+001
1.84174134E+001
1.67855179E+001
1.69168472E+001
1.70634504E+001
2.88092701E+001
2.67042588E+001
2.03602232E+001
1.72992114E+001
1.90480902E+001
2.36792101E+001
2.29472478E+001
2.51929596E+001
1.76262811E+001
2.21721099E+001
2.86929936E+001
3.07336995E+001
2.67561413E+001
1.80528277E+001
1.98250778E+001
2.14152862E+001
1.85848127E+001
2.86189257E+001
3.05837234E+001
2.44730537E+001
2.56402154E+001
2.07036345E+001
2.35335989E+001
2.67690093E+001
1.92185706E+001
2.26244292E+001
3.04676796E+001
2.86205685E+001
3.23289159E+001
2.17027185E+001
1.99549169E+001
2.61340020E+001
2.49680743E+001
2.77588206E+001
3.03848648E+001
3.21975683E+001
2.38879690E+001
2.08036664E+001
2.88629000E+001
2.28359157E+001
3.20815802E+001
3.04088412E+001
3.37820712E+001
2.17693365E+001
2.64535967E+001
2.77885681E+001
2.52315349E+001
2.90345539E+001
2.40481311E+001
3.20053050E+001
3.36725561E+001
3.04903147E+001
2.28513017E+001
2.79671220E+001
2.66442728E+001
3.19860247E+001
3.35581423E+001
2.93435038E+001
2.53432366E+001
3.51019562E+001
3.06497048E+001
2.40376767E+001
3.34628096E+001
3.20230990E+001
3.50092289E+001
2.80676299E+001
2.66894293E+001
2.94544575E+001
2.53071628E+001
3.07962514E+001
3.33898396E+001
3.49153285E+001
3.21103803E+001
3.62994013E+001
2.80622469E+001
3.33779198E+001
2.94888659E+001
2.66336312E+001
3.48103355E+001
3.08629476E+001
3.62340286E+001
3.21987061E+001
3.34174375E+001
3.46781099E+001
3.61608602E+001
2.94456594E+001
2.79913740E+001
3.08708711E+001
3.73846396E+001
3.45351206E+001
3.22343966E+001
3.34829110E+001
3.60785176E+001
3.73389270E+001
3.45962367E+001
2.93526971E+001
3.08013793E+001
3.22088017E+001
3.54901689E+001
3.72947776E+001
3.35082596E+001
3.58128284E+001
3.83680308E+001
3.46591133E+001
3.06917671E+001
3.55210032E+001
3.21201524E+001
3.72516878E+001
3.83388546E+001
3.34720652E+001
3.46926638E+001
3.83022972E+001
3.57548202E+001
3.67083805E+001
3.19951343E+001
3.73756310E+001
3.92582288E+001
3.33712980E+001
3.46645570E+001
3.83029645E+001
3.92265916E+001
3.57971273E+001
3.67307557E+001
3.32450475E+001
3.74732562E+001
3.91977299E+001
3.45720022E+001
3.83284754E+001
4.00568619E+001
3.57636136E+001
3.67821282E+001
3.91751672E+001
4.00185438E+001
3.76485967E+001
3.44295270E+001
3.84094894E+001
3.56702648E+001
3.99788354E+001
3.91723483E+001
3.67726378E+001
4.07673118E+001
3.76799281E+001
3.99354847E+001
3.55442058E+001
3.84587831E+001
4.07202984E+001
3.66956103E+001
3.91916426E+001
3.76727325E+001
4.06636736E+001
3.99099745E+001
3.84890697E+001
4.13942632E+001
3.65763420E+001
3.92163981E+001
4.06126674E+001
3.76008495E+001
4.13368861E+001
3.98925024E+001
3.84664148E+001
4.12664922E+001
4.05579170E+001
3.91939467E+001
3.75140428E+001
3.98593441E+001
4.19416821E+001
3.84103693E+001
4.12053486E+001
4.05008915E+001
4.18843798E+001
3.91699631E+001
3.98164092E+001
4.11197820E+001
3.83510008E+001
4.18104619E+001
4.04257732E+001
3.91205298E+001
4.24153693E+001
4.17275122E+001
4.10336271E+001
3.97684689E+001
4.23602455E+001
4.03451514E+001
3.90803218E+001
4.16643278E+001
4.22759077E+001
4.09148678E+001
3.97248806E+001
4.02654154E+001
4.21842037E+001
4.28219116E+001
4.15028671E+001
4.07842248E+001
3.96939374E+001
4.27670925E+001
4.20578769E+001
4.02077940E+001
4.13092059E+001
4.26797042E+001
4.06578343E+001
4.18849318E+001
4.25687652E+001
4.31671151E+001
4.11411492E+001
4.01798822E+001
4.31138850E+001
4.05584853E+001
4.24298471E+001
4.16689341E+001
4.30249613E+001
4.09525872E+001
4.22060908E+001
4.29046063E+001
4.05159314E+001
4.14312698E+001
4.34563061E+001
4.07654726E+001
4.34074083E+001
4.19686750E+001
4.27502513E+001
4.11582637E+001
4.33149995E+001
4.06592519E+001
4.25965803E+001
4.16813532E+001
4.31878944E+001
4.36942273E+001
4.08521823E+001
4.36468534E+001
4.21375013E+001
4.30233130E+001
4.13275245E+001
4.35526113E+001
4.04456570E+001
4.27851013E+001
4.18652634E+001
4.34182883E+001
4.08684389E+001
4.38849422E+001
3.95680209E+001
4.38381756E+001
4.25520994E+001
4.32350640E+001
4.15009391E+001
4.02649593E+001
4.37406605E+001
4.30088647E+001
3.86586853E+001
4.20247443E+001
4.08598246E+001
4.35990729E+001
4.40320459E+001
3.95142087E+001
4.26656110E+001
4.39865283E+001
4.34031074E+001
4.01600723E+001
3.76515115E+001
4.38849253E+001
4.15530509E+001
3.86246625E+001
4.31419958E+001
4.22848202E+001
4.37314146E+001
4.08592769E+001
3.94643836E+001
4.41393760E+001
3.65359209E+001
4.28343395E+001
4.40910168E+001
3.76063243E+001
4.35406950E+001
4.18092472E+001
4.01809694E+001
3.85701770E+001
4.39896945E+001
4.24671206E+001
4.32274347E+001
3.53105068E+001
4.10953477E+001
3.93972572E+001
4.38246284E+001
4.18345731E+001
3.64933668E+001
4.42092904E+001
4.07264285E+001
4.29503317E+001
3.75454291E+001
4.21009483E+001
4.41606721E+001
4.35831192E+001
3.84796682E+001
4.01395015E+001
3.39818545E+001
4.40407744E+001
4.16603382E+001
3.52682118E+001
4.25883378E+001
4.33474651E+001
3.64181876E+001
4.12893914E+001
3.91979844E+001
4.38929810E+001
4.42435720E+001
3.74611414E+001
4.21570463E+001
4.30262600E+001
4.06073211E+001
3.25575433E+001
4.41929488E+001
4.36757036E+001
3.39341914E+001
3.83768872E+001
3.51992308E+001
4.16831904E+001
3.97829690E+001
4.26375230E+001
4.41006908E+001
3.63238025E+001
4.33976687E+001
4.11197833E+001
3.10338426E+001
4.39352683E+001
3.90372807E+001
3.73602000E+001
4.21781248E+001
3.25106409E+001
4.42579846E+001
3.83923880E+001
4.30574774E+001
3.38737077E+001
4.04461002E+001
4.37094347E+001
3.51165749E+001
4.42246900E+001
4.16439244E+001
4.26415481E+001
3.61845553E+001
4.41211966E+001
4.34131031E+001
2.94052338E+001
3.96879276E+001
3.10021576E+001
4.10250934E+001
3.24589025E+001
4.21533673E+001
4.39514895E+001
3.38047279E+001
3.70856084E+001
4.30495930E+001
3.50026837E+001
4.37111838E+001
4.03055307E+001
3.82726815E+001
4.15778887E+001
2.76608999E+001
4.26064414E+001
3.60182280E+001
2.93656291E+001
3.09086030E+001
4.33990103E+001
3.48154576E+001
3.24093557E+001
3.94109344E+001
4.09099169E+001
3.38721245E+001
4.20810839E+001
4.30110162E+001
2.58483170E+001
2.76543916E+001
4.01465226E+001
3.65330310E+001
2.92783912E+001
4.14729494E+001
3.83724220E+001
3.40064105E+001
4.25431039E+001
3.47432457E+001
3.70517156E+001
3.07898118E+001
3.23754084E+001
4.07759195E+001
3.92704934E+001
4.19925791E+001
2.58930030E+001
2.40073992E+001
2.75771083E+001
3.72644825E+001
3.63075541E+001
3.99895978E+001
4.13554047E+001
2.90823014E+001
3.51555971E+001
3.82776936E+001
3.41970800E+001
2.40571330E+001
3.09140768E+001
2.21498289E+001
2.57924566E+001
3.30986232E+001
3.60820352E+001
4.06292441E+001
3.90984101E+001
3.71628504E+001
2.72949044E+001
3.48586433E+001
3.98115424E+001
2.21334051E+001
3.80874967E+001
2.02729635E+001
2.39208189E+001
2.83715996E+001
3.59250640E+001
2.54933491E+001
3.35328455E+001
3.88982949E+001
2.98216759E+001
3.69730589E+001
2.02580343E+001
1.83832861E+001
2.19956980E+001
2.67970902E+001
3.45954451E+001
3.19898594E+001
3.78816636E+001
2.36256242E+001
2.56635098E+001
3.57218450E+001
1.83678704E+001
1.64779302E+001
2.00885490E+001
3.31881320E+001
3.67512493E+001
3.03140322E+001
2.81291777E+001
2.15532789E+001
3.43903944E+001
1.64999266E+001
3.17616880E+001
1.81784549E+001
1.45307862E+001
3.55046807E+001
1.97053451E+001
2.28383026E+001
3.29928478E+001
2.54463326E+001
2.84551441E+001
1.46502455E+001
1.63783395E+001
1.25417805E+001
3.01848241E+001
2.68162757E+001
3.41738868E+001
1.78371131E+001
2.06088660E+001
1.89961587E+001
3.15724057E+001
1.27850193E+001
1.45871880E+001
1.05604979E+001
2.50063429E+001
2.69403825E+001
3.27990091E+001
1.59585250E+001
2.85768380E+001
1.28947070E+001
1.09408594E+001
3.00856193E+001
1.77577078E+001
1.45693291E+001
8.58829343E+000
1.25636490E+001
3.14004421E+001
2.54624192E+001
2.46169541E+001
1.12160733E+001
2.12814195E+001
2.70175888E+001
2.22818427E+001
9.07281946E+000
2.85629552E+001
6.48443990E+000
1.53740748E+001
1.16378971E+001
1.82808475E+001
2.99750582E+001
2.38326172E+001
1.24865530E+001
9.56940982E+000
7.13426401E+000
2.54232898E+001
3.97143289E+000
2.70086446E+001
2.06871213E+001
2.23654157E+001
2.84991567E+001
7.82853877E+000
1.00805486E+001
5.06424084E+000
1.93524873E+001
2.38385989E+001
9.38138456E-015
2.54121709E+001
6.11180740E+000
3.24879828E+000
2.69585003E+001
2.06699660E+001
8.34386041E+000
1.35029106E+001
1.72869429E+001
6.43929354E-015
2.22100437E+001
1.07533289E+001
4.55489453E+000
1.84374708E+000
2.37886813E+001
6.68003507E+000
1.88724684E+001
2.53610101E+001
3.34635800E+000
-3.09197112E-014
5.31756063E+000
2.05099449E+001
8.43918895E+000
1.34111186E+000
2.21295045E+001
4.14316603E+000
2.51257741E+000
1.51382396E+001
1.69199170E+001
2.37268749E+001
6.76877318E+000
-6.82787160E-015
5.45849824E+000
3.34085545E+000
1.87225317E+001
1.05970833E+000
4.60370340E+000
3.57642094E+000
2.02862798E+000
2.04459536E+001
2.79218672E+000
2.20784391E+001
3.43325626E+000
1.06026299E-014
3.94240043E+000
1.09860560E+001
1.46518212E+001
8.84154658E-001
1.68090398E+001
5.38635062E+000
9.54183875E+000
1.71272130E+000
6.19320092E+000
1.87271593E+001
7.33127454E+000
2.44875922E+000
1.13636714E+001
3.08309471E+000
2.04358599E+001
9.65894031E-015
3.78386907E+000
7.51441372E-001
1.47410112E+000
2.15472610E+000
1.44738381E+001
4.47416310E+000
2.76176578E+000
1.68637700E+001
1.23487336E+001
1.88179173E+001
3.33118741E+000
6.54856927E-001
-2.24265051E-014
1.29459840E+000
1.90427790E+000
5.08895658E+000
2.46307924E+000
2.79832521E+000
9.83396440E+000
9.31827035E+000
3.38410585E+000
1.27599931E+001
1.72463187E+001
1.48821309E+001
2.84397779E+000
1.16225202E+000
1.71732070E+000
5.97007643E-001
1.03433190E+001
2.26453938E+000
-1.17683641E-014
6.02457723E+000
7.06688561E+000
8.66250137E+000
1.56757756E+001
1.20500588E+001
1.56953599E+000
1.07636570E+000
1.04476285E+001
4.26756268E+000
2.09938093E+000
5.57349226E-001
1.31513569E+001
2.73327892E+000
7.81962530E+000
-1.59872116E-014
8.30762435E+000
1.39432882E+001
1.19494306E+001
1.43304147E+000
1.05343027E+001
1.02783218E+000
1.85635487E+000
5.40002240E-001
5.02792328E+000
4.17345753E+000
8.82811182E+000
6.47756519E+000
-3.99680289E-015
1.33388652E+000
2.32444702E+000
7.06777292E+000
1.19333958E+001
5.31633404E+000
1.00656546E+000
1.02868137E+001
8.70924235E+000
1.52865109E+000
2.39910232E+000
5.34088997E-001
4.06301246E+000
1.03797483E+000
9.32587341E-015
1.02308508E+001
8.56673852E+000
5.57178429E+000
6.20156894E+000
7.53481179E+000
5.02634499E+000
1.72603351E+000
5.33133449E-001
3.30287922E+000
4.14971010E+000
1.02064268E+000
6.66204540E+000
8.38275236E+000
-7.54951657E-015
1.98621089E+000
4.31030037E+000
4.61429934E+000
5.09958561E-001
3.10858212E+000
3.72770267E+000
4.91444756E+000
1.13987134E+000
6.25609284E+000
8.86975644E-001
1.28785871E-014
1.54205665E+000
3.22172815E+000
3.31356495E+000
1.94694234E+000
4.53439576E-001
2.73263926E+000
3.15132011E+000
9.73580894E-001
3.73862728E+000
2.70758990E+000
7.16244333E-001
2.66453526E-015
2.08906192E+000
7.81894787E-001
1.37175355E+000
2.42941947E+000
7.07172981E-001
2.43269832E+000
3.98318983E-001
1.82934093E+000
6.16446449E-001
7.18443775E-001
1.06805284E+000
1.84170152E+000
-1.24344979E-014
7.34926603E-001
1.99624176E+000
2.01565579E+000
1.56940937E+000
7.99360578E-015
1.86547897E+000
5.62187546E-001
3.50128403E-001
1.31567109E+000
1.63611669E+000
1.18385083E+000
6.45782975E-001
9.75350954E-001
7.80797706E-001
1.51192838E+000
-5.32907052E-015
1.22453260E+000
3.29183382E-001
-1.33226763E-014
1.31997171E+000
1.20729505E+000
1.00663189E+000
1.22762442E+000
1.14328047E+000
3.59318620E-001
-1.77635684E-015
8.07446774E-001
-1.33226763E-014
4.17730472E-001
4.95763531E-001
6.94298426E-001
5.62492398E-001
-7.10542736E-015
5.87626393E-001
6.30011188E-001
-1.06581410E-014
5.88563188E-001
5.92109964E-001
0.00000000E+000
-1.77635684E-015
-1.77635684E-015
-5.32907052E-015
3.55271368E-015
3.55271368E-015
3.55271368E-015
0.00000000E+000
-0.00000000E+000
