# vtk DataFile Version 1.0
ECM-CELL DIFFUSION-MECHANICS
ASCII

DATASET UNSTRUCTURED_GRID
POINTS      916 float
1.50000000E+001 3.00000000E+001 0.00000000E+000
1.40000000E+001 3.00000000E+001 0.00000000E+000
1.42860000E+001 2.92860000E+001 0.00000000E+000
1.38220000E+001 2.95110000E+001 0.00000000E+000
1.31920000E+001 2.92480000E+001 0.00000000E+000
1.30000000E+001 3.00000000E+001 0.00000000E+000
1.35710000E+001 2.85710000E+001 0.00000000E+000
1.23740000E+001 2.89100000E+001 0.00000000E+000
1.20000000E+001 3.00000000E+001 0.00000000E+000
1.28570000E+001 2.78570000E+001 0.00000000E+000
1.14690000E+001 2.85460000E+001 0.00000000E+000
1.10000000E+001 3.00000000E+001 0.00000000E+000
1.21430000E+001 2.71430000E+001 0.00000000E+000
1.00000000E+001 3.00000000E+001 0.00000000E+000
1.03580000E+001 2.81300000E+001 0.00000000E+000
1.14290000E+001 2.64290000E+001 0.00000000E+000
9.15040000E+000 2.86920000E+001 0.00000000E+000
9.00000000E+000 3.00000000E+001 0.00000000E+000
1.07140000E+001 2.57140000E+001 0.00000000E+000
9.72130000E+000 2.69890000E+001 0.00000000E+000
9.07950000E+000 2.78020000E+001 0.00000000E+000
8.16360000E+000 2.88340000E+001 0.00000000E+000
8.00000000E+000 3.00000000E+001 0.00000000E+000
8.33620000E+000 2.77140000E+001 0.00000000E+000
1.00000000E+001 2.50000000E+001 0.00000000E+000
8.73300000E+000 2.63120000E+001 0.00000000E+000
7.14370000E+000 2.89120000E+001 0.00000000E+000
7.00000000E+000 3.00000000E+001 0.00000000E+000
7.28610000E+000 2.78470000E+001 0.00000000E+000
9.28570000E+000 2.42860000E+001 0.00000000E+000
7.37330000E+000 2.67010000E+001 0.00000000E+000
8.21740000E+000 2.51480000E+001 0.00000000E+000
6.12510000E+000 2.89680000E+001 0.00000000E+000
7.16330000E+000 2.56950000E+001 0.00000000E+000
6.24030000E+000 2.79500000E+001 0.00000000E+000
6.00000000E+000 3.00000000E+001 0.00000000E+000
8.57140000E+000 2.35710000E+001 0.00000000E+000
6.28440000E+000 2.69290000E+001 0.00000000E+000
7.66110000E+000 2.42790000E+001 0.00000000E+000
6.20650000E+000 2.60190000E+001 0.00000000E+000
6.76840000E+000 2.48430000E+001 0.00000000E+000
5.10610000E+000 2.89950000E+001 0.00000000E+000
5.20890000E+000 2.79980000E+001 0.00000000E+000
5.00000000E+000 3.00000000E+001 0.00000000E+000
7.85710000E+000 2.28570000E+001 0.00000000E+000
5.28570000E+000 2.70200000E+001 0.00000000E+000
5.96280000E+000 2.52640000E+001 0.00000000E+000
7.02120000E+000 2.34990000E+001 0.00000000E+000
5.31560000E+000 2.61360000E+001 0.00000000E+000
6.21780000E+000 2.40970000E+001 0.00000000E+000
5.39320000E+000 2.55440000E+001 0.00000000E+000
5.44740000E+000 2.46300000E+001 0.00000000E+000
4.08330000E+000 2.89980000E+001 0.00000000E+000
4.00000000E+000 3.00000000E+001 0.00000000E+000
4.15910000E+000 2.79780000E+001 0.00000000E+000
7.14290000E+000 2.21430000E+001 0.00000000E+000
4.22690000E+000 2.69510000E+001 0.00000000E+000
6.34880000E+000 2.27610000E+001 0.00000000E+000
4.79360000E+000 2.51850000E+001 0.00000000E+000
4.37670000E+000 2.59610000E+001 0.00000000E+000
5.55660000E+000 2.33580000E+001 0.00000000E+000
4.77700000E+000 2.39610000E+001 0.00000000E+000
3.04470000E+000 2.89930000E+001 0.00000000E+000
3.00000000E+000 3.00000000E+001 0.00000000E+000
3.07880000E+000 2.79490000E+001 0.00000000E+000
6.42860000E+000 2.14290000E+001 0.00000000E+000
3.95690000E+000 2.46060000E+001 0.00000000E+000
5.64230000E+000 2.19980000E+001 0.00000000E+000
3.08630000E+000 2.68450000E+001 0.00000000E+000
4.85570000E+000 2.25900000E+001 0.00000000E+000
3.07120000E+000 2.55350000E+001 0.00000000E+000
4.04940000E+000 2.31710000E+001 0.00000000E+000
2.00000000E+000 3.00000000E+001 0.00000000E+000
2.00790000E+000 2.89930000E+001 0.00000000E+000
5.71430000E+000 2.07140000E+001 0.00000000E+000
1.99890000E+000 2.79730000E+001 0.00000000E+000
4.93310000E+000 2.11910000E+001 0.00000000E+000
3.14750000E+000 2.37290000E+001 0.00000000E+000
1.92540000E+000 2.69290000E+001 0.00000000E+000
4.16060000E+000 2.17860000E+001 0.00000000E+000
1.67700000E+000 2.58840000E+001 0.00000000E+000
3.33840000E+000 2.22990000E+001 0.00000000E+000
1.00000000E+000 3.00000000E+001 0.00000000E+000
9.87970000E-001 2.90050000E+001 0.00000000E+000
2.09360000E+000 2.43280000E+001 0.00000000E+000
5.00000000E+000 2.00000000E+001 0.00000000E+000
9.62140000E-001 2.79930000E+001 0.00000000E+000
9.15140000E-001 2.70070000E+001 0.00000000E+000
4.22140000E+000 2.02500000E+001 0.00000000E+000
2.38890000E+000 2.27340000E+001 0.00000000E+000
3.50970000E+000 2.09590000E+001 0.00000000E+000
8.34270000E-001 2.61980000E+001 0.00000000E+000
5.00000000E+000 1.90000000E+001 0.00000000E+000
2.71380000E+000 2.14220000E+001 0.00000000E+000
1.77640000E-015 3.00000000E+001 0.00000000E+000
8.62920000E-001 2.48760000E+001 0.00000000E+000
-2.63010000E-002 2.90000000E+001 0.00000000E+000
-5.65980000E-002 2.79730000E+001 0.00000000E+000
3.51430000E+000 1.98930000E+001 0.00000000E+000
1.27860000E+000 2.31760000E+001 0.00000000E+000
4.17430000E+000 1.91510000E+001 0.00000000E+000
-9.34870000E-002 2.69000000E+001 0.00000000E+000
2.96680000E+000 2.01870000E+001 0.00000000E+000
1.79120000E+000 2.17310000E+001 0.00000000E+000
5.00000000E+000 1.80000000E+001 0.00000000E+000
-1.14700000E-001 2.57090000E+001 0.00000000E+000
3.39550000E+000 1.91890000E+001 0.00000000E+000
2.20280000E+000 2.04980000E+001 0.00000000E+000
-1.00000000E+000 3.00000000E+001 0.00000000E+000
-1.03490000E+000 2.90030000E+001 0.00000000E+000
4.13540000E+000 1.81470000E+001 0.00000000E+000
-1.07560000E+000 2.79760000E+001 0.00000000E+000
2.64020000E+000 1.93960000E+001 0.00000000E+000
7.29260000E-001 2.19780000E+001 0.00000000E+000
5.00000000E+000 1.70000000E+001 0.00000000E+000
-1.13370000E+000 2.69380000E+001 0.00000000E+000
-2.04240000E-001 2.35850000E+001 0.00000000E+000
1.31890000E+000 2.07030000E+001 0.00000000E+000
3.28250000E+000 1.82960000E+001 0.00000000E+000
-1.22720000E+000 2.59400000E+001 0.00000000E+000
1.85050000E+000 1.95870000E+001 0.00000000E+000
-9.48340000E-001 2.46660000E+001 0.00000000E+000
4.11030000E+000 1.71470000E+001 0.00000000E+000
-2.00000000E+000 3.00000000E+001 0.00000000E+000
2.45080000E+000 1.84900000E+001 0.00000000E+000
-2.03650000E+000 2.90070000E+001 0.00000000E+000
-1.46080000E+000 2.52180000E+001 0.00000000E+000
-2.07700000E+000 2.79900000E+001 0.00000000E+000
5.00000000E+000 1.60000000E+001 0.00000000E+000
3.19780000E-001 2.08470000E+001 0.00000000E+000
3.22740000E+000 1.73070000E+001 0.00000000E+000
-2.12220000E+000 2.69620000E+001 0.00000000E+000
9.83390000E-001 1.96980000E+001 0.00000000E+000
-5.09100000E-001 2.21000000E+001 0.00000000E+000
1.61400000E+000 1.86400000E+001 0.00000000E+000
4.09720000E+000 1.61430000E+001 0.00000000E+000
-2.16930000E+000 2.59760000E+001 0.00000000E+000
2.36130000E+000 1.75130000E+001 0.00000000E+000
-2.19100000E+000 2.50810000E+001 0.00000000E+000
-1.98280000E+000 2.42220000E+001 0.00000000E+000
-3.00000000E+000 3.00000000E+001 0.00000000E+000
5.00000000E+000 1.50000000E+001 0.00000000E+000
-3.02860000E+000 2.90070000E+001 0.00000000E+000
-1.73170000E+000 2.31840000E+001 0.00000000E+000
3.20280000E+000 1.63040000E+001 0.00000000E+000
1.75390000E-002 1.97880000E+001 0.00000000E+000
-3.06250000E+000 2.80090000E+001 0.00000000E+000
7.46600000E-001 1.87140000E+001 0.00000000E+000
-7.72460000E-001 2.08950000E+001 0.00000000E+000
1.48290000E+000 1.76590000E+001 0.00000000E+000
-3.09400000E+000 2.69770000E+001 0.00000000E+000
4.08650000E+000 1.51350000E+001 0.00000000E+000
2.31320000E+000 1.64940000E+001 0.00000000E+000
-3.11700000E+000 2.59640000E+001 0.00000000E+000
-1.77210000E+000 2.20110000E+001 0.00000000E+000
-3.10560000E+000 2.49960000E+001 0.00000000E+000
5.00000000E+000 1.40000000E+001 0.00000000E+000
3.17620000E+000 1.52860000E+001 0.00000000E+000
-1.88800000E-001 1.87590000E+001 0.00000000E+000
5.99420000E-001 1.77190000E+001 0.00000000E+000
-3.01060000E+000 2.40530000E+001 0.00000000E+000
-9.89990000E-001 1.97900000E+001 0.00000000E+000
-4.00000000E+000 3.00000000E+001 0.00000000E+000
-4.01530000E+000 2.90100000E+001 0.00000000E+000
1.42680000E+000 1.66430000E+001 0.00000000E+000
-4.03230000E+000 2.80050000E+001 0.00000000E+000
-1.89130000E+000 2.08830000E+001 0.00000000E+000
-2.92520000E+000 2.30180000E+001 0.00000000E+000
4.07530000E+000 1.41270000E+001 0.00000000E+000
-4.04730000E+000 2.69900000E+001 0.00000000E+000
2.28060000E+000 1.54520000E+001 0.00000000E+000
-4.06300000E+000 2.59770000E+001 0.00000000E+000
-3.18600000E-001 1.77540000E+001 0.00000000E+000
5.27690000E-001 1.67110000E+001 0.00000000E+000
-1.13790000E+000 1.87630000E+001 0.00000000E+000
-2.93690000E+000 2.19150000E+001 0.00000000E+000
3.15000000E+000 1.42700000E+001 0.00000000E+000
-4.04930000E+000 2.49870000E+001 0.00000000E+000
5.00000000E+000 1.30000000E+001 0.00000000E+000
1.38360000E+000 1.56010000E+001 0.00000000E+000
-2.01980000E+000 1.98030000E+001 0.00000000E+000
-4.01430000E+000 2.40010000E+001 0.00000000E+000
-5.00000000E+000 3.00000000E+001 0.00000000E+000
-5.00000000E+000 2.90000000E+001 0.00000000E+000
-5.00000000E+000 2.80000000E+001 0.00000000E+000
4.06800000E+000 1.31200000E+001 0.00000000E+000
2.24940000E+000 1.44260000E+001 0.00000000E+000
-2.97810000E+000 2.08670000E+001 0.00000000E+000
-5.00000000E+000 2.70000000E+001 0.00000000E+000
-3.98160000E+000 2.29910000E+001 0.00000000E+000
-3.76220000E-001 1.67450000E+001 0.00000000E+000
-1.24900000E+000 1.77420000E+001 0.00000000E+000
4.83520000E-001 1.56830000E+001 0.00000000E+000
-5.00000000E+000 2.60000000E+001 0.00000000E+000
-2.12400000E+000 1.87590000E+001 0.00000000E+000
3.13940000E+000 1.32530000E+001 0.00000000E+000
5.00000000E+000 1.20000000E+001 0.00000000E+000
1.34820000E+000 1.45660000E+001 0.00000000E+000
-5.00000000E+000 2.50000000E+001 0.00000000E+000
-3.98700000E+000 2.19450000E+001 0.00000000E+000
-3.03080000E+000 1.98440000E+001 0.00000000E+000
-5.00000000E+000 2.40000000E+001 0.00000000E+000
2.22450000E+000 1.33970000E+001 0.00000000E+000
4.05960000E+000 1.21120000E+001 0.00000000E+000
[...]
POINT_DATA      916
SCALARS Ux float
LOOKUP_TABLE default
1.00000000E+000
9.99696820E-001
1.00000000E+000
9.99630924E-001
9.99280290E-001
9.98498036E-001
1.00000000E+000
9.98192151E-001
9.96445121E-001
1.00000000E+000
9.97039848E-001
9.93498506E-001
1.00000000E+000
9.90639132E-001
9.92924897E-001
1.00000000E+000
9.88057874E-001
9.87144010E-001
1.00000000E+000
9.93117518E-001
9.89288357E-001
9.83501857E-001
9.82646171E-001
9.85519074E-001
1.00000000E+000
9.90411942E-001
9.78573232E-001
9.77657501E-001
9.79667026E-001
1.00000000E+000
9.83702702E-001
9.90984395E-001
9.73129345E-001
9.83913469E-001
9.74522208E-001
9.72307103E-001
1.00000000E+000
9.76358281E-001
9.91152235E-001
9.77409045E-001
9.83381879E-001
9.67351982E-001
9.68322587E-001
9.66654673E-001
1.00000000E+000
9.68948887E-001
9.76971819E-001
9.90339867E-001
9.72725648E-001
9.81480723E-001
9.72974350E-001
9.73842591E-001
9.61337156E-001
9.60872465E-001
9.61795375E-001
1.00000000E+000
9.62535464E-001
9.88577037E-001
9.68326253E-001
9.64683043E-001
9.77865689E-001
9.68654118E-001
9.55265365E-001
9.55123304E-001
9.55223082E-001
1.00000000E+000
9.60023403E-001
9.85325526E-001
9.54916332E-001
9.72120670E-001
9.53279670E-001
9.60986535E-001
9.49547930E-001
9.49333269E-001
1.00000000E+000
9.48725527E-001
9.79223389E-001
9.51370419E-001
9.47404701E-001
9.62287339E-001
9.44725763E-001
9.50163385E-001
9.44273817E-001
9.43793832E-001
9.42938227E-001
1.00000000E+000
9.42674732E-001
9.40807116E-001
9.58585056E-001
9.39935973E-001
9.45695226E-001
9.38003850E-001
9.31170401E-001
9.36852079E-001
9.39494611E-001
9.35238226E-001
9.38828927E-001
9.37351978E-001
9.32847467E-001
9.29301108E-001
9.29464500E-001
9.34768355E-001
9.29408461E-001
9.27281287E-001
8.94832306E-001
9.31362382E-001
9.16924795E-001
9.19734343E-001
9.35360631E-001
9.34659810E-001
8.95706865E-001
9.32944956E-001
9.09619967E-001
9.20382952E-001
8.66140530E-001
9.30142495E-001
9.20582866E-001
9.17421706E-001
8.93049879E-001
9.25847526E-001
9.02615972E-001
9.22922185E-001
8.68143135E-001
9.31989132E-001
8.88845031E-001
9.31164079E-001
9.22705766E-001
9.30040987E-001
8.41098763E-001
8.99337302E-001
8.67932972E-001
9.26264012E-001
8.90545675E-001
9.05214088E-001
8.82993974E-001
8.43372205E-001
9.21983925E-001
8.67003685E-001
9.18758131E-001
9.14543493E-001
9.29279904E-001
8.18063055E-001
9.28962851E-001
9.08313725E-001
8.44520136E-001
8.88311235E-001
9.25882355E-001
8.77183272E-001
8.94253278E-001
8.63696080E-001
9.23579959E-001
8.20352936E-001
8.44915241E-001
9.19776719E-001
8.99000585E-001
9.15177164E-001
7.96308217E-001
8.22026480E-001
8.70239001E-001
8.59363716E-001
9.09819810E-001
8.79850188E-001
9.27430901E-001
9.26365428E-001
8.43407606E-001
9.24655287E-001
8.87565043E-001
9.02759506E-001
7.98546209E-001
9.21819217E-001
8.23021161E-001
9.18042211E-001
8.54011752E-001
8.38987384E-001
8.65324775E-001
8.93618914E-001
8.00404009E-001
9.13227233E-001
7.75403975E-001
8.23113348E-001
8.74863938E-001
9.07320409E-001
9.26698781E-001
9.25407983E-001
9.23836584E-001
7.77551136E-001
8.01982998E-001
8.83354589E-001
9.21139561E-001
9.00150885E-001
8.39029664E-001
8.49744169E-001
8.21205417E-001
9.17344201E-001
8.60903584E-001
7.79452441E-001
7.55098121E-001
8.02845199E-001
9.12414205E-001
8.91435409E-001
8.71749668E-001
9.06349749E-001
7.81171778E-001
7.57104513E-001
8.33498040E-001
8.18629162E-001
8.81604513E-001
8.46213125E-001
8.04114047E-001
8.99199892E-001
8.58473142E-001
7.58957041E-001
7.82259610E-001
7.35234265E-001
8.70440646E-001
8.90917061E-001
8.15287458E-001
8.30409781E-001
7.95335173E-001
7.60639317E-001
7.37078737E-001
8.44440403E-001
8.81377485E-001
7.80829511E-001
8.57752410E-001
7.38903657E-001
7.61212732E-001
7.15718512E-001
8.70521036E-001
8.13596320E-001
7.96459053E-001
8.29256345E-001
7.80042353E-001
8.44052859E-001
7.40388842E-001
7.17326779E-001
7.61143334E-001
8.58310306E-001
7.95855218E-001
8.12913308E-001
7.41236854E-001
7.19114783E-001
7.77800686E-001
8.29201666E-001
6.96568853E-001
7.60188763E-001
8.44813091E-001
7.20747487E-001
7.41430858E-001
6.97970593E-001
7.95891601E-001
8.13405245E-001
7.77620158E-001
8.30166589E-001
7.59317083E-001
7.22144060E-001
6.99407377E-001
7.40927497E-001
6.77767886E-001
7.96810871E-001
7.22670671E-001
7.78182381E-001
8.14535541E-001
7.01087274E-001
7.59419951E-001
6.78747197E-001
7.40446901E-001
7.22512344E-001
7.03200324E-001
6.79743294E-001
7.79426770E-001
7.98068043E-001
7.60098607E-001
6.59301866E-001
7.05495714E-001
7.40626610E-001
7.21964097E-001
6.80788541E-001
6.59907428E-001
7.04609384E-001
7.80941092E-001
7.61588805E-001
7.41575572E-001
6.90144004E-001
6.60238453E-001
7.22012487E-001
6.84968945E-001
6.41149115E-001
7.03796836E-001
7.63324173E-001
6.89757219E-001
7.43265690E-001
6.60279996E-001
6.41380604E-001
7.22935611E-001
7.03398037E-001
6.41327225E-001
6.85422218E-001
6.68393948E-001
7.45248078E-001
6.57013127E-001
6.23309467E-001
7.24754918E-001
7.04023104E-001
6.40155757E-001
6.23501482E-001
6.84591254E-001
6.67735916E-001
7.26821197E-001
6.54059010E-001
6.23021139E-001
7.05677455E-001
6.38067846E-001
6.05933324E-001
6.85108980E-001
6.66273120E-001
6.21815435E-001
6.06159075E-001
6.49517963E-001
7.08092192E-001
6.34642602E-001
6.86746405E-001
6.05601760E-001
6.19574655E-001
6.66061851E-001
5.89168088E-001
6.47839975E-001
6.04283147E-001
6.88992710E-001
6.31660889E-001
5.89473895E-001
6.67321483E-001
6.16436759E-001
6.47146984E-001
5.88940746E-001
6.01625587E-001
6.29191093E-001
5.73160056E-001
6.69573986E-001
6.12905530E-001
5.87063159E-001
6.48182413E-001
5.73592160E-001
5.98252224E-001
6.28281524E-001
5.72968825E-001
5.84177420E-001
6.10678425E-001
6.49878459E-001
5.94830014E-001
5.58086719E-001
6.28716873E-001
5.70529748E-001
5.80486070E-001
5.58353585E-001
6.08934739E-001
5.91765318E-001
5.67409631E-001
6.29803303E-001
5.57349008E-001
5.76717010E-001
6.08739972E-001
5.44062819E-001
5.54718697E-001
5.63089548E-001
5.89320336E-001
5.44121438E-001
5.72696884E-001
6.09198634E-001
5.48788658E-001
5.43006494E-001
5.58828146E-001
5.88009871E-001
5.69142275E-001
5.39832893E-001
5.31161515E-001
5.46065527E-001
5.53648797E-001
5.87806855E-001
5.31095801E-001
5.35309708E-001
5.66428620E-001
5.43233959E-001
5.29684200E-001
5.48178531E-001
5.29717586E-001
5.26540767E-001
5.19446519E-001
5.34327449E-001
5.65192798E-001
5.19217521E-001
5.43669139E-001
5.21487467E-001
5.23991093E-001
5.17585381E-001
5.26432195E-001
5.14922420E-001
5.14258903E-001
5.40586047E-001
5.16195969E-001
5.08954759E-001
5.18001560E-001
5.08469736E-001
5.05927646E-001
5.08964746E-001
5.03679968E-001
5.06726167E-001
5.12468036E-001
5.01662765E-001
5.01040893E-001
5.03212137E-001
4.99728137E-001
4.92540046E-001
4.99077931E-001
4.94137505E-001
4.98120062E-001
4.87419134E-001
4.97118032E-001
4.73458453E-001
4.91129474E-001
4.84233562E-001
4.93483508E-001
4.71644286E-001
4.91830241E-001
4.30356005E-001
4.90987590E-001
4.82446930E-001
4.88441127E-001
4.73733876E-001
4.49431457E-001
4.88808616E-001
4.83527964E-001
4.01057831E-001
4.68390290E-001
4.54532493E-001
4.85151246E-001
4.85247965E-001
4.23927688E-001
4.72480184E-001
4.84333106E-001
4.79783872E-001
4.32973602E-001
3.75838447E-001
4.81873144E-001
4.55207263E-001
3.97795218E-001
4.72625462E-001
4.61872953E-001
4.77975059E-001
4.40632638E-001
4.14397243E-001
4.80047708E-001
3.52594358E-001
4.64465520E-001
4.78899534E-001
3.73506711E-001
4.73909411E-001
4.47460949E-001
4.23983664E-001
3.92119323E-001
4.77324811E-001
4.54928453E-001
4.63701773E-001
3.30470743E-001
4.33337365E-001
4.05364416E-001
4.72254120E-001
4.43103319E-001
3.50964546E-001
4.75969396E-001
4.26447627E-001
4.57664321E-001
3.69625149E-001
4.45664611E-001
4.75571593E-001
4.64988598E-001
3.85238470E-001
4.15157393E-001
3.09134868E-001
4.70933878E-001
4.35696068E-001
3.29219963E-001
4.49460332E-001
4.60033099E-001
3.47931400E-001
4.27548442E-001
3.94587899E-001
4.67695718E-001
4.73710383E-001
3.64828350E-001
4.40082741E-001
4.52742970E-001
4.16040600E-001
2.88434748E-001
4.71068383E-001
4.62522046E-001
3.08041441E-001
3.79056894E-001
3.26985827E-001
4.30143479E-001
3.99527809E-001
4.44547415E-001
4.69060615E-001
3.44183609E-001
4.56248353E-001
4.19294515E-001
2.68152781E-001
4.65099419E-001
3.88230297E-001
3.59824236E-001
4.35165834E-001
2.87525450E-001
4.71225032E-001
3.75853565E-001
4.49062768E-001
3.06359215E-001
4.06661100E-001
4.60080607E-001
3.24213072E-001
4.70440451E-001
4.24657003E-001
4.40568590E-001
3.39732255E-001
4.67830223E-001
4.53749260E-001
2.48110543E-001
3.93524517E-001
2.67556157E-001
4.12935861E-001
2.86233887E-001
4.30951684E-001
4.63994009E-001
3.04250368E-001
3.52514689E-001
4.46230509E-001
3.20920885E-001
4.58754103E-001
3.99786488E-001
3.67097090E-001
4.19949781E-001
2.28109683E-001
4.37410696E-001
3.34880933E-001
2.47498665E-001
2.65941400E-001
4.52189876E-001
3.17125007E-001
2.84720387E-001
3.83736895E-001
4.07584298E-001
3.04163262E-001
4.27247204E-001
4.44296904E-001
2.08602876E-001
2.27937057E-001
3.93887780E-001
3.39245369E-001
2.46143295E-001
4.15829614E-001
3.66190592E-001
3.04708931E-001
4.35064911E-001
3.14489761E-001
3.46775798E-001
2.63800137E-001
2.82996444E-001
4.03172129E-001
3.78827533E-001
4.24533634E-001
2.08996997E-001
1.89872704E-001
2.26841084E-001
3.48240001E-001
3.34705438E-001
3.89422228E-001
4.12726565E-001
2.43374932E-001
3.18321498E-001
3.62594684E-001
3.05313572E-001
1.90304136E-001
2.64663573E-001
1.71894550E-001
2.07762695E-001
2.90900750E-001
3.30500314E-001
3.99734424E-001
3.74507732E-001
3.45323194E-001
2.23284027E-001
3.13103894E-001
3.85673440E-001
1.71687072E-001
3.58400415E-001
1.54535206E-001
1.88819817E-001
2.34389130E-001
3.27144834E-001
2.04404446E-001
2.95194784E-001
3.70651394E-001
2.50216283E-001
3.41519410E-001
1.54350279E-001
1.37773063E-001
1.70276187E-001
2.17469099E-001
3.08586575E-001
2.75653961E-001
3.54712765E-001
1.85728670E-001
2.05800307E-001
3.23480021E-001
1.37580446E-001
1.21516679E-001
1.52704343E-001
2.89973540E-001
3.37836002E-001
2.55393737E-001
2.30993358E-001
1.65949340E-001
3.05218670E-001
1.21638315E-001
2.72124422E-001
1.35809262E-001
1.05497279E-001
3.20105699E-001
1.49102635E-001
1.77737092E-001
2.87006861E-001
2.03136927E-001
2.34266309E-001
1.06396333E-001
1.20472901E-001
8.96830331E-002
2.53412277E-001
2.17005969E-001
3.02081230E-001
1.32675350E-001
1.56992277E-001
1.42651424E-001
2.69449536E-001
9.15011200E-002
1.05746691E-001
7.44478763E-002
1.98610203E-001
2.18067171E-001
2.84367304E-001
1.16792066E-001
2.35343436E-001
9.22012062E-002
7.72101141E-002
2.51995960E-001
1.31931243E-001
1.05429287E-001
5.97805770E-002
8.93758158E-002
2.67234592E-001
2.02862205E-001
1.94500168E-001
7.90576930E-002
1.62918691E-001
2.18647868E-001
1.72064340E-001
6.31805843E-002
2.34992489E-001
4.46292864E-002
1.11645400E-001
8.20201447E-002
1.35930741E-001
2.50620505E-001
1.86755391E-001
8.83097370E-002
6.65384005E-002
4.90802051E-002
2.02318987E-001
2.70592539E-002
2.18420557E-001
1.57243612E-001
1.72757195E-001
2.34216036E-001
5.37171011E-002
6.99021857E-002
3.44332968E-002
1.45180040E-001
1.86684133E-001
-5.63785130E-017
2.02094279E-001
4.13912132E-002
2.17889744E-002
2.17835583E-001
1.57011331E-001
5.69728047E-002
9.59600024E-002
1.27300876E-001
-7.45931095E-017
1.71172074E-001
7.44005637E-002
3.04440036E-002
1.21091460E-002
1.86115557E-001
4.49627103E-002
1.40951477E-001
2.01534647E-001
2.20309106E-002
-4.77048956E-018
3.53709577E-002
1.55535269E-001
5.71124636E-002
8.61940077E-003
1.70366592E-001
2.71971598E-002
1.62425183E-002
1.09327762E-001
1.24165434E-001
1.85485445E-001
4.51178454E-002
-8.41340886E-017
3.59817264E-002
2.16443389E-002
1.39666113E-001
6.66040674E-003
3.01336047E-002
2.30838948E-002
1.28674130E-002
1.54940004E-001
1.77975726E-002
1.69872280E-001
2.19995304E-002
-2.47198095E-017
2.53267542E-002
7.61285479E-002
1.05465132E-001
5.43694595E-003
1.23313406E-001
3.51639052E-002
6.50022912E-002
1.06550026E-002
4.06523416E-002
1.39734526E-001
4.87630691E-002
1.53688210E-002
7.91736162E-002
1.94760345E-002
1.54848407E-001
-1.66316613E-016
2.40959746E-002
4.52393130E-003
9.00024398E-003
1.33058310E-002
1.04161841E-001
2.86092418E-002
1.72132901E-002
1.23834668E-001
8.71491628E-002
1.40543038E-001
2.09367268E-002
3.86628773E-003
-7.37257477E-018
7.76528295E-003
1.15718831E-002
3.26703529E-002
1.51385172E-002
1.72849871E-002
6.75726604E-002
6.34799292E-002
2.11486337E-002
9.05793701E-002
1.27101736E-001
1.07537881E-001
1.74904250E-002
6.85845309E-003
1.02783134E-002
3.46476823E-003
7.16938243E-002
1.37252177E-002
-3.05745013E-017
3.92249021E-002
4.67476122E-002
5.89222723E-002
1.14119099E-001
8.53176000E-002
9.26838861E-003
6.26649471E-003
7.28609648E-002
2.69751751E-002
1.25677440E-002
3.18673482E-003
9.39846902E-002
1.66395608E-002
5.26956829E-002
-7.39425882E-017
5.67352185E-002
1.00209655E-001
8.46431888E-002
8.36692994E-003
7.37496980E-002
5.92284076E-003
1.09743387E-002
3.05286972E-003
3.22557655E-002
2.62006705E-002
6.08431130E-002
4.29161374E-002
-1.77809156E-017
7.73807505E-003
1.38886071E-002
4.76495225E-002
8.45525041E-002
3.43366577E-002
5.75757528E-003
7.20354774E-002
6.02430346E-002
8.88495502E-003
1.42954487E-002
2.98945811E-003
2.54916121E-002
5.89436786E-003
-8.19656842E-017
7.16808924E-002
5.93592734E-002
3.69214492E-002
4.18594262E-002
5.17684701E-002
3.26608670E-002
1.00072547E-002
2.95339423E-003
2.02674392E-002
2.63480884E-002
5.74960720E-003
4.56410389E-002
5.80978942E-002
-3.94649591E-017
1.16520580E-002
2.80800860E-002
3.06563013E-002
2.79743926E-003
1.90832851E-002
2.37352352E-002
3.32928553E-002
6.46198287E-003
4.28874371E-002
4.95382770E-003
-1.04950770E-016
8.87711307E-003
2.06153212E-002
2.16310218E-002
1.13981333E-002
2.47005227E-003
1.67794212E-002
2.10113174E-002
5.46990628E-003
2.53692432E-002
1.69294744E-002
3.96085296E-003
-6.15826834E-017
1.24282888E-002
4.32591049E-003
7.84904762E-003
1.55665449E-002
3.90003505E-003
1.53156388E-002
2.16153087E-003
1.19335299E-002
3.38676348E-003
3.96506309E-003
6.03403565E-003
1.09938536E-002
-8.32667268E-017
4.06704839E-003
1.23109523E-002
1.25654783E-002
9.50377643E-003
9.10729825E-018
1.17451760E-002
3.07169300E-003
1.89080575E-003
8.40535633E-003
9.78194594E-003
6.75754012E-003
3.56556326E-003
5.49767014E-003
4.35253109E-003
9.36388796E-003
-4.85722573E-017
7.05312685E-003
1.77517590E-003
-3.72965547E-017
8.04385607E-003
7.04130984E-003
6.30480051E-003
7.36119143E-003
6.74537037E-003
1.95213254E-003
0.00000000E+000
4.95999772E-003
-1.90819582E-017
2.28814533E-003
2.73464902E-003
4.18155605E-003
3.12413655E-003
1.38777878E-017
3.29837863E-003
3.72067986E-003
-3.29597460E-017
3.35195256E-003
3.43169947E-003
-3.81639165E-017
-3.98986399E-017
-3.81639165E-017
-3.12250226E-017
2.42861287E-017
-2.42861287E-017
-1.38777878E-017
-6.93889390E-018
-0.00000000E+000
