# vtk DataFile Version 1.0
ECM-CELL DIFFUSION-MECHANICS
ASCII

DATASET UNSTRUCTURED_GRID
POINTS       77 float
1.50000000E+001 3.00000000E+001 0.00000000E+000
1.25000000E+001 2.75000000E+001 0.00000000E+000
1.10000000E+001 3.00000000E+001 0.00000000E+000
1.00000000E+001 2.50000000E+001 0.00000000E+000
7.00000000E+000 3.00000000E+001 0.00000000E+000
6.30050000E+000 2.61990000E+001 0.00000000E+000
7.50000000E+000 2.25000000E+001 0.00000000E+000
3.00000000E+000 3.00000000E+001 0.00000000E+000
1.90660000E+000 2.66490000E+001 0.00000000E+000
5.00000000E+000 2.00000000E+001 0.00000000E+000
2.76820000E+000 2.26680000E+001 0.00000000E+000
-1.00000000E+000 3.00000000E+001 0.00000000E+000
5.00000000E+000 1.62500000E+001 0.00000000E+000
-1.53590000E+000 2.43750000E+001 0.00000000E+000
1.87210000E+000 1.84660000E+001 0.00000000E+000
-1.53590000E+000 2.06250000E+001 0.00000000E+000
-5.00000000E+000 3.00000000E+001 0.00000000E+000
5.00000000E+000 1.25000000E+001 0.00000000E+000
-5.00000000E+000 2.62500000E+001 0.00000000E+000
1.53590000E+000 1.43750000E+001 0.00000000E+000
-1.53590000E+000 1.68750000E+001 0.00000000E+000
-5.00000000E+000 2.25000000E+001 0.00000000E+000
-5.00000000E+000 1.87500000E+001 0.00000000E+000
5.00000000E+000 8.75000000E+000 0.00000000E+000
1.53590000E+000 1.06250000E+001 0.00000000E+000
-1.53590000E+000 1.31250000E+001 0.00000000E+000
-5.00000000E+000 1.50000000E+001 0.00000000E+000
-1.53590000E+000 9.37500000E+000 0.00000000E+000
1.53590000E+000 6.87500000E+000 0.00000000E+000
5.00000000E+000 5.00000000E+000 0.00000000E+000
-5.00000000E+000 1.12500000E+001 0.00000000E+000
-1.53590000E+000 5.62500000E+000 0.00000000E+000
1.53590000E+000 3.12500000E+000 0.00000000E+000
-5.00000000E+000 7.50000000E+000 0.00000000E+000
5.00000000E+000 1.25000000E+000 0.00000000E+000
-1.53590000E+000 1.87500000E+000 0.00000000E+000
-5.00000000E+000 3.75000000E+000 0.00000000E+000
1.53590000E+000 -6.25000000E-001 0.00000000E+000
5.00000000E+000 -2.50000000E+000 0.00000000E+000
-5.00000000E+000 0.00000000E+000 0.00000000E+000
1.59820000E+000 -3.88330000E+000 0.00000000E+000
5.00000000E+000 -6.25000000E+000 0.00000000E+000
-2.84820000E+000 -3.34710000E+000 0.00000000E+000
-8.65120000E+000 0.00000000E+000 0.00000000E+000
-6.96490000E-001 -6.69420000E+000 0.00000000E+000
-6.82560000E+000 -3.46410000E+000 0.00000000E+000
-1.23020000E+001 0.00000000E+000 0.00000000E+000
5.00000000E+000 -1.00000000E+001 0.00000000E+000
-4.67390000E+000 -6.81120000E+000 0.00000000E+000
-1.04770000E+001 -3.46410000E+000 0.00000000E+000
8.45000000E-001 -1.00000000E+001 0.00000000E+000
-1.59540000E+001 0.00000000E+000 0.00000000E+000
-8.65120000E+000 -6.92820000E+000 0.00000000E+000
-3.31000000E+000 -1.00000000E+001 0.00000000E+000
-1.41280000E+001 -3.46410000E+000 0.00000000E+000
-1.93890000E+001 0.00000000E+000 0.00000000E+000
-7.46500000E+000 -1.00000000E+001 0.00000000E+000
-1.35200000E+001 -6.53590000E+000 0.00000000E+000
-1.76710000E+001 -3.46410000E+000 0.00000000E+000
-2.24030000E+001 0.00000000E+000 0.00000000E+000
-1.16060000E+001 -1.00000000E+001 0.00000000E+000
-1.71870000E+001 -6.53590000E+000 0.00000000E+000
-2.08960000E+001 -3.13030000E+000 0.00000000E+000
-2.50000000E+001 0.00000000E+000 0.00000000E+000
-1.54340000E+001 -1.00000000E+001 0.00000000E+000
-2.05340000E+001 -6.69090000E+000 0.00000000E+000
-2.51250000E+001 -2.80600000E+000 0.00000000E+000
-2.75000000E+001 -6.69870000E-001 0.00000000E+000
-1.89410000E+001 -1.00000000E+001 0.00000000E+000
-2.35640000E+001 -7.01630000E+000 0.00000000E+000
-2.21270000E+001 -1.00000000E+001 0.00000000E+000
-2.93300000E+001 -2.50000000E+000 0.00000000E+000
-2.71830000E+001 -6.32540000E+000 0.00000000E+000
-2.50000000E+001 -1.00000000E+001 0.00000000E+000
-3.00000000E+001 -5.00000000E+000 0.00000000E+000
-2.75000000E+001 -9.33010000E+000 0.00000000E+000
-2.93300000E+001 -7.50000000E+000 0.00000000E+000

CELLS      107      428
   3          63          67          66  
   3          71          72          66  
   3          76          75          72  
   3          67          71          66  
   3          74          76          72  
   3          75          73          72  
   3          59          63          66  
   3          73          70          69  
   3          55          59          62  
   3          70          68          65  
   3          69          70          65  
   3          69          65          62  
   3          73          69          72  
   3          72          69          66  
   3          51          55          58  
   3          62          59          66  
   3          55          62          58  
   3          58          62          65  
   3          68          64          61  
   3           9           6          10  
   3           6           3           5  
   3           3           1           4  
   3           1           0           2  
   3           1           2           4  
   3          39          43          45  
   3          43          46          49  
   3          46          51          54  
   3          65          68          61  
   3          65          61          58  
   3          58          61          54  
   3          58          54          51  
   3          72          71          74  
   3          47          41          50  
   3          29          23          28  
   3          16          18          11  
   3          26          30          25  
   3          38          34          37  
   3          17          12          19  
   3          21          22          15  
   3          33          36          31  
   3          41          38          40  
   3          23          17          24  
   3          18          21          13  
   3          30          33          27  
   3          34          29          32  
   3          12           9          14  
   3          22          26          20  
   3          36          39          35  
   3          64          60          57  
   3          61          64          57  
   3          61          57          54  
   3          54          57          49  
   3          54          49          46  
   3          10           6           5  
   3          10           5           8  
   3           9          10          14  
   3           5           3           4  
   3           5           4           7  
   3          45          43          49  
   3          45          49          52  
   3          52          49          57  
   3          45          52          48  
   3          39          45          42  
   3          28          23          24  
   3          28          24          27  
   3          27          24          25  
   3          27          25          30  
   3          15          22          20  
   3          15          20          14  
   3          14          20          19  
   3          14          19          12  
   3          13          21          15  
   3          13          15          10  
   3          20          26          25  
   3          20          25          19  
   3          19          25          24  
   3          19          24          17  
   3          37          34          32  
   3          37          32          35  
   3          35          32          31  
   3          35          31          36  
   3          40          38          37  
   3          40          37          42  
   3          32          29          28  
   3          32          28          31  
   3          31          28          27  
   3          31          27          33  
   3          35          39          42  
   3          14          10          15  
   3          18          13          11  
   3          41          44          50  
   3          57          60          52  
   3          37          35          42  
   3          48          52          56  
   3          56          52          60  
   3          45          48          42  
   3          42          48          44  
   3          44          48          53  
   3          53          48          56  
   3          42          44          40  
   3          40          44          41  
   3          50          44          53  
   3           7          11           8  
   3           8          11          13  
   3           8          13          10  
   3           7           8           5  
   3          66          69          62  

CELL_TYPES      107
    5     5     5     5     5     5     5     5     5     5     5     5     5     5     5     5     5     5     5     5     5     5     5     5     5     5     5     5     5     5     5     5     5     5     5     5     5     5     5     5     5     5     5     5     5     5     5     5     5     5     5     5     5     5     5     5     5     5     5     5     5     5     5     5     5     5     5     5     5     5     5     5     5     5     5     5     5     5     5     5     5     5     5     5     5     5     5     5     5     5     5     5     5     5     5     5     5     5     5     5     5     5     5     5     5     5     5 
POINT_DATA       77
SCALARS Ux float
LOOKUP_TABLE default
1.00000000E+000
1.00000000E+000
9.94542872E-001
1.00000000E+000
9.81558671E-001
9.81189305E-001
1.00000000E+000
9.61385832E-001
9.54151990E-001
1.00000000E+000
9.56189147E-001
9.44639804E-001
8.63224267E-001
9.29565698E-001
8.99959881E-001
8.99610239E-001
9.36664802E-001
7.75640806E-001
9.29655523E-001
8.10952575E-001
8.47633866E-001
9.08708180E-001
8.68269799E-001
6.98445733E-001
7.34061385E-001
7.79294775E-001
8.10089120E-001
7.05715301E-001
6.59559734E-001
6.26671132E-001
7.40719917E-001
6.29752630E-001
5.88772531E-001
6.65433178E-001
5.63200405E-001
5.51575595E-001
5.82519507E-001
5.29517629E-001
5.13172760E-001
4.72607106E-001
4.90505693E-001
4.83655440E-001
4.57868674E-001
3.62851986E-001
4.56354714E-001
3.91554396E-001
2.80940797E-001
4.72203142E-001
4.09713733E-001
3.16048211E-001
4.58143568E-001
2.05309351E-001
3.44371091E-001
4.21290409E-001
2.41713380E-001
1.35114141E-001
3.61301880E-001
2.51954046E-001
1.70461776E-001
7.01311857E-002
2.87141003E-001
1.79462332E-001
1.06564085E-001
-1.21430643E-016
2.13373177E-001
1.13426888E-001
3.15615548E-002
-1.21430643E-017
1.43532744E-001
5.62386648E-002
7.67942424E-002
-7.28583860E-017
1.66540002E-002
1.12757026E-017
-1.04083409E-016
-8.67361738E-017
-1.11022302E-016
