# vtk DataFile Version 1.0
ECM-CELL DIFFUSION-MECHANICS
ASCII

DATASET UNSTRUCTURED_GRID
POINTS     3395 float
1.50000000E+001 3.00000000E+001 0.00000000E+000
1.45000000E+001 3.00000000E+001 0.00000000E+000
1.46430000E+001 2.96430000E+001 0.00000000E+000
1.41430000E+001 2.96430000E+001 0.00000000E+000
1.40000000E+001 3.00000000E+001 0.00000000E+000
1.42860000E+001 2.92860000E+001 0.00000000E+000
1.36690000E+001 2.96610000E+001 0.00000000E+000
1.38120000E+001 2.93030000E+001 0.00000000E+000
1.35000000E+001 3.00000000E+001 0.00000000E+000
1.39290000E+001 2.89290000E+001 0.00000000E+000
1.33390000E+001 2.93210000E+001 0.00000000E+000
1.31690000E+001 2.96610000E+001 0.00000000E+000
1.34550000E+001 2.89460000E+001 0.00000000E+000
1.30000000E+001 3.00000000E+001 0.00000000E+000
1.35710000E+001 2.85710000E+001 0.00000000E+000
1.29190000E+001 2.92280000E+001 0.00000000E+000
1.30360000E+001 2.88530000E+001 0.00000000E+000
1.27500000E+001 2.95670000E+001 0.00000000E+000
1.25000000E+001 3.00000000E+001 0.00000000E+000
1.32140000E+001 2.82140000E+001 0.00000000E+000
1.25000000E+001 2.91340000E+001 0.00000000E+000
1.26790000E+001 2.84960000E+001 0.00000000E+000
1.22500000E+001 2.95670000E+001 0.00000000E+000
1.20000000E+001 3.00000000E+001 0.00000000E+000
1.28570000E+001 2.78570000E+001 0.00000000E+000
1.22500000E+001 2.87010000E+001 0.00000000E+000
1.20000000E+001 2.91340000E+001 0.00000000E+000
1.24290000E+001 2.80630000E+001 0.00000000E+000
1.17500000E+001 2.95670000E+001 0.00000000E+000
1.20000000E+001 2.82680000E+001 0.00000000E+000
1.15000000E+001 3.00000000E+001 0.00000000E+000
1.17500000E+001 2.87010000E+001 0.00000000E+000
1.25000000E+001 2.75000000E+001 0.00000000E+000
1.15000000E+001 2.91340000E+001 0.00000000E+000
1.20710000E+001 2.77050000E+001 0.00000000E+000
1.12500000E+001 2.95670000E+001 0.00000000E+000
1.17270000E+001 2.78840000E+001 0.00000000E+000
1.10000000E+001 3.00000000E+001 0.00000000E+000
1.14020000E+001 2.82040000E+001 0.00000000E+000
1.21430000E+001 2.71430000E+001 0.00000000E+000
1.10440000E+001 2.90670000E+001 0.00000000E+000
1.11520000E+001 2.86370000E+001 0.00000000E+000
1.17990000E+001 2.73210000E+001 0.00000000E+000
1.07940000E+001 2.95000000E+001 0.00000000E+000
1.14540000E+001 2.75000000E+001 0.00000000E+000
1.11290000E+001 2.78200000E+001 0.00000000E+000
1.05000000E+001 3.00000000E+001 0.00000000E+000
1.05880000E+001 2.90000000E+001 0.00000000E+000
1.06960000E+001 2.85700000E+001 0.00000000E+000
1.17860000E+001 2.67860000E+001 0.00000000E+000
1.08030000E+001 2.81410000E+001 0.00000000E+000
1.14420000E+001 2.69640000E+001 0.00000000E+000
1.02940000E+001 2.95000000E+001 0.00000000E+000
1.10210000E+001 2.72500000E+001 0.00000000E+000
1.06960000E+001 2.75700000E+001 0.00000000E+000
1.01790000E+001 2.87920000E+001 0.00000000E+000
1.02860000E+001 2.83620000E+001 0.00000000E+000
1.00000000E+001 3.00000000E+001 0.00000000E+000
1.14290000E+001 2.64290000E+001 0.00000000E+000
9.88430000E+000 2.92920000E+001 0.00000000E+000
1.10090000E+001 2.67140000E+001 0.00000000E+000
1.02630000E+001 2.78200000E+001 0.00000000E+000
1.05880000E+001 2.70000000E+001 0.00000000E+000
9.76870000E+000 2.85830000E+001 0.00000000E+000
9.50000000E+000 3.00000000E+001 0.00000000E+000
1.10710000E+001 2.60710000E+001 0.00000000E+000
1.01550000E+001 2.72500000E+001 0.00000000E+000
9.42820000E+000 2.95000000E+001 0.00000000E+000
9.74560000E+000 2.80420000E+001 0.00000000E+000
1.06510000E+001 2.63570000E+001 0.00000000E+000
9.31250000E+000 2.87920000E+001 0.00000000E+000
1.01550000E+001 2.67500000E+001 0.00000000E+000
9.72240000E+000 2.75000000E+001 0.00000000E+000
9.31250000E+000 2.82920000E+001 0.00000000E+000
9.00000000E+000 3.00000000E+001 0.00000000E+000
1.07140000E+001 2.57140000E+001 0.00000000E+000
9.72240000E+000 2.70000000E+001 0.00000000E+000
8.92820000E+000 2.95000000E+001 0.00000000E+000
9.28940000E+000 2.77500000E+001 0.00000000E+000
1.02180000E+001 2.61070000E+001 0.00000000E+000
8.85640000E+000 2.90000000E+001 0.00000000E+000
8.85640000E+000 2.85000000E+001 0.00000000E+000
9.72240000E+000 2.65000000E+001 0.00000000E+000
9.28940000E+000 2.72500000E+001 0.00000000E+000
8.85640000E+000 2.80000000E+001 0.00000000E+000
8.50000000E+000 3.00000000E+001 0.00000000E+000
1.03570000E+001 2.53570000E+001 0.00000000E+000
9.28940000E+000 2.67500000E+001 0.00000000E+000
8.42820000E+000 2.95000000E+001 0.00000000E+000
8.85640000E+000 2.75000000E+001 0.00000000E+000
9.86120000E+000 2.57500000E+001 0.00000000E+000
8.42340000E+000 2.87500000E+001 0.00000000E+000
8.42340000E+000 2.82500000E+001 0.00000000E+000
8.85640000E+000 2.70000000E+001 0.00000000E+000
9.21420000E+000 2.63230000E+001 0.00000000E+000
8.42340000E+000 2.77500000E+001 0.00000000E+000
9.34630000E+000 2.58830000E+001 0.00000000E+000
8.00000000E+000 3.00000000E+001 0.00000000E+000
7.99520000E+000 2.92500000E+001 0.00000000E+000
1.00000000E+001 2.50000000E+001 0.00000000E+000
8.78120000E+000 2.65730000E+001 0.00000000E+000
8.42340000E+000 2.72500000E+001 0.00000000E+000
7.99040000E+000 2.85000000E+001 0.00000000E+000
7.99040000E+000 2.80000000E+001 0.00000000E+000
8.42340000E+000 2.67500000E+001 0.00000000E+000
9.48510000E+000 2.51330000E+001 0.00000000E+000
8.70610000E+000 2.61470000E+001 0.00000000E+000
7.99040000E+000 2.75000000E+001 0.00000000E+000
7.56220000E+000 2.95000000E+001 0.00000000E+000
7.50000000E+000 3.00000000E+001 0.00000000E+000
8.83810000E+000 2.57070000E+001 0.00000000E+000
7.55740000E+000 2.87500000E+001 0.00000000E+000
9.64290000E+000 2.46430000E+001 0.00000000E+000
8.34820000E+000 2.63230000E+001 0.00000000E+000
7.99040000E+000 2.70000000E+001 0.00000000E+000
7.55740000E+000 2.82500000E+001 0.00000000E+000
8.97020000E+000 2.52660000E+001 0.00000000E+000
7.55740000E+000 2.77500000E+001 0.00000000E+000
7.99040000E+000 2.65000000E+001 0.00000000E+000
9.12790000E+000 2.47760000E+001 0.00000000E+000
8.34850000E+000 2.58070000E+001 0.00000000E+000
7.55740000E+000 2.72500000E+001 0.00000000E+000
7.12440000E+000 2.90000000E+001 0.00000000E+000
7.06220000E+000 2.95000000E+001 0.00000000E+000
8.48060000E+000 2.53670000E+001 0.00000000E+000
7.00000000E+000 3.00000000E+001 0.00000000E+000
7.12440000E+000 2.85000000E+001 0.00000000E+000
7.99070000E+000 2.59840000E+001 0.00000000E+000
9.28570000E+000 2.42860000E+001 0.00000000E+000
7.55740000E+000 2.67500000E+001 0.00000000E+000
7.12440000E+000 2.80000000E+001 0.00000000E+000
8.63770000E+000 2.48930000E+001 0.00000000E+000
7.12440000E+000 2.75000000E+001 0.00000000E+000
7.57450000E+000 2.62240000E+001 0.00000000E+000
7.99100000E+000 2.54680000E+001 0.00000000E+000
8.79550000E+000 2.44030000E+001 0.00000000E+000
6.66980000E+000 2.87920000E+001 0.00000000E+000
7.12440000E+000 2.70000000E+001 0.00000000E+000
6.56220000E+000 2.95000000E+001 0.00000000E+000
8.14810000E+000 2.49940000E+001 0.00000000E+000
6.50000000E+000 3.00000000E+001 0.00000000E+000
6.66980000E+000 2.82920000E+001 0.00000000E+000
7.57480000E+000 2.57080000E+001 0.00000000E+000
8.92860000E+000 2.39290000E+001 0.00000000E+000
6.69130000E+000 2.77500000E+001 0.00000000E+000
7.14150000E+000 2.64740000E+001 0.00000000E+000
8.30520000E+000 2.45200000E+001 0.00000000E+000
6.69130000E+000 2.72500000E+001 0.00000000E+000
7.60860000E+000 2.52130000E+001 0.00000000E+000
7.15860000E+000 2.59480000E+001 0.00000000E+000
8.43830000E+000 2.40460000E+001 0.00000000E+000
6.21530000E+000 2.85830000E+001 0.00000000E+000
6.10760000E+000 2.92920000E+001 0.00000000E+000
6.69130000E+000 2.67500000E+001 0.00000000E+000
7.76570000E+000 2.47390000E+001 0.00000000E+000
6.23680000E+000 2.80420000E+001 0.00000000E+000
6.00000000E+000 3.00000000E+001 0.00000000E+000
7.19240000E+000 2.54530000E+001 0.00000000E+000
8.57140000E+000 2.35710000E+001 0.00000000E+000
6.25830000E+000 2.75000000E+001 0.00000000E+000
6.70850000E+000 2.62240000E+001 0.00000000E+000
7.84570000E+000 2.41650000E+001 0.00000000E+000
6.25830000E+000 2.70000000E+001 0.00000000E+000
5.82030000E+000 2.88290000E+001 0.00000000E+000
7.22630000E+000 2.49580000E+001 0.00000000E+000
5.71260000E+000 2.95370000E+001 0.00000000E+000
6.70850000E+000 2.57240000E+001 0.00000000E+000
5.80380000E+000 2.82920000E+001 0.00000000E+000
6.25830000E+000 2.65000000E+001 0.00000000E+000
7.97890000E+000 2.36910000E+001 0.00000000E+000
5.82530000E+000 2.77500000E+001 0.00000000E+000
5.50000000E+000 3.00000000E+001 0.00000000E+000
7.30630000E+000 2.43840000E+001 0.00000000E+000
6.74230000E+000 2.52290000E+001 0.00000000E+000
5.82530000E+000 2.72500000E+001 0.00000000E+000
8.21430000E+000 2.32140000E+001 0.00000000E+000
6.25830000E+000 2.60000000E+001 0.00000000E+000
5.42530000E+000 2.90740000E+001 0.00000000E+000
5.40880000E+000 2.85370000E+001 0.00000000E+000
5.82530000E+000 2.67500000E+001 0.00000000E+000
6.74230000E+000 2.47290000E+001 0.00000000E+000
5.21260000E+000 2.95370000E+001 0.00000000E+000
7.38630000E+000 2.38100000E+001 0.00000000E+000
5.39230000E+000 2.80000000E+001 0.00000000E+000
6.25830000E+000 2.55000000E+001 0.00000000E+000
5.82530000E+000 2.62500000E+001 0.00000000E+000
5.39230000E+000 2.75000000E+001 0.00000000E+000
7.62170000E+000 2.33330000E+001 0.00000000E+000
5.00000000E+000 3.00000000E+001 0.00000000E+000
6.82230000E+000 2.41550000E+001 0.00000000E+000
5.39230000E+000 2.70000000E+001 0.00000000E+000
6.25830000E+000 2.50000000E+001 0.00000000E+000
4.97200000E+000 2.89300000E+001 0.00000000E+000
7.85710000E+000 2.28570000E+001 0.00000000E+000
5.82530000E+000 2.57500000E+001 0.00000000E+000
4.95550000E+000 2.83930000E+001 0.00000000E+000
7.25530000E+000 2.34050000E+001 0.00000000E+000
5.39230000E+000 2.65000000E+001 0.00000000E+000
4.75940000E+000 2.93930000E+001 0.00000000E+000
4.95930000E+000 2.77500000E+001 0.00000000E+000
7.49070000E+000 2.29290000E+001 0.00000000E+000
6.25830000E+000 2.45000000E+001 0.00000000E+000
5.82530000E+000 2.52500000E+001 0.00000000E+000
6.82230000E+000 2.36550000E+001 0.00000000E+000
5.39230000E+000 2.60000000E+001 0.00000000E+000
4.95930000E+000 2.72500000E+001 0.00000000E+000
[...]
POINT_DATA     3395
SCALARS Ux float
LOOKUP_TABLE default
1.00000000E+000
9.99918742E-001
1.00000000E+000
9.99741660E-001
9.99592716E-001
1.00000000E+000
9.99331271E-001
9.99644838E-001
9.99109285E-001
1.00000000E+000
9.99070809E-001
9.98680605E-001
9.99468072E-001
9.98380288E-001
1.00000000E+000
9.98509443E-001
9.98986048E-001
9.98020621E-001
9.97495877E-001
1.00000000E+000
9.97777584E-001
9.98708617E-001
9.97006788E-001
9.96360740E-001
1.00000000E+000
9.97605388E-001
9.96682544E-001
9.98855380E-001
9.95793230E-001
9.97561661E-001
9.95069344E-001
9.96390069E-001
1.00000000E+000
9.95348363E-001
9.98632472E-001
9.94379031E-001
9.97458452E-001
9.93535514E-001
9.96079709E-001
1.00000000E+000
9.94042288E-001
9.94744909E-001
9.98760636E-001
9.92936756E-001
9.97425824E-001
9.95836264E-001
9.91853623E-001
9.92531809E-001
9.93302082E-001
1.00000000E+000
9.94244816E-001
9.98570316E-001
9.91149142E-001
9.96633972E-001
9.94827428E-001
9.91207774E-001
9.92092766E-001
9.89937047E-001
1.00000000E+000
9.89619431E-001
9.97902000E-001
9.92810623E-001
9.95710705E-001
9.89746959E-001
9.87874430E-001
1.00000000E+000
9.93486936E-001
9.87622396E-001
9.90304916E-001
9.97633229E-001
9.87554771E-001
9.94685375E-001
9.91154318E-001
9.88082312E-001
9.85569538E-001
1.00000000E+000
9.92199573E-001
9.85286374E-001
9.88761395E-001
9.96785705E-001
9.85223230E-001
9.85644945E-001
9.93508147E-001
9.89704759E-001
9.86279857E-001
9.83145781E-001
1.00000000E+000
9.90844273E-001
9.82831106E-001
9.87062255E-001
9.96427161E-001
9.83260525E-001
9.83751483E-001
9.88085886E-001
9.91641469E-001
9.84433443E-001
9.93608566E-001
9.80522263E-001
9.80631042E-001
1.00000000E+000
9.88693975E-001
9.85281862E-001
9.81160411E-001
9.81684907E-001
9.86348824E-001
9.97123578E-001
9.89470477E-001
9.82420409E-001
9.78173774E-001
9.77774858E-001
9.91559745E-001
9.78524905E-001
1.00000000E+000
9.86980282E-001
9.83298441E-001
9.78961993E-001
9.93918586E-001
9.79532567E-001
9.84419104E-001
9.96794947E-001
9.88490817E-001
9.80293402E-001
9.75837420E-001
9.75265280E-001
9.90792867E-001
9.74854488E-001
9.76146854E-001
9.85753790E-001
1.00000000E+000
9.81200204E-001
9.76616732E-001
9.93581920E-001
9.77197738E-001
9.82514688E-001
9.87399311E-001
9.96781174E-001
9.73211740E-001
9.77969148E-001
9.72270786E-001
9.90123330E-001
9.71858102E-001
9.73521532E-001
9.83898509E-001
1.00000000E+000
9.74168037E-001
9.79039122E-001
9.93215894E-001
9.74741917E-001
9.85752269E-001
9.80381027E-001
9.96400587E-001
9.70446388E-001
9.69468102E-001
9.75505122E-001
9.88656244E-001
9.70912582E-001
9.68728477E-001
9.81953655E-001
1.00000000E+000
9.71543435E-001
9.76553487E-001
9.91866570E-001
9.72090264E-001
9.67779804E-001
9.83859972E-001
9.66917531E-001
9.77696935E-001
9.67915503E-001
9.72798802E-001
9.95414585E-001
9.68373142E-001
9.65529519E-001
9.86686026E-001
9.79234738E-001
9.68797140E-001
1.00000000E+000
9.73624306E-001
9.65129589E-001
9.65158402E-001
9.69271119E-001
9.80878074E-001
9.63669136E-001
9.90175457E-001
9.65261761E-001
9.74664869E-001
9.69923429E-001
9.65510963E-001
9.94842353E-001
9.62264649E-001
9.83729117E-001
9.65846913E-001
9.75859682E-001
9.62163695E-001
1.00000000E+000
9.70633918E-001
9.62128046E-001
9.91371285E-001
9.66245422E-001
9.60703951E-001
9.62348951E-001
9.96619275E-001
9.77356979E-001
9.71591239E-001
9.86183191E-001
9.66757473E-001
9.62500012E-001
9.58979513E-001
9.92867331E-001
9.59129595E-001
9.62756797E-001
9.72630690E-001
9.79082359E-001
1.00000000E+000
9.67354351E-001
9.59191824E-001
9.87104849E-001
9.62998052E-001
9.57385287E-001
9.59283058E-001
9.96094571E-001
9.74027351E-001
9.68110175E-001
9.81292681E-001
9.59347658E-001
9.63390343E-001
9.56235834E-001
9.55683401E-001
9.90433461E-001
9.56215808E-001
9.59436857E-001
9.68989143E-001
9.75570174E-001
9.63756250E-001
1.00000000E+000
9.56152727E-001
9.54555659E-001
9.83876809E-001
9.59545149E-001
9.56117376E-001
9.93903463E-001
9.70110874E-001
9.64340193E-001
9.56009315E-001
9.53381558E-001
9.77671928E-001
9.59689947E-001
9.53293759E-001
9.52395425E-001
9.53162193E-001
9.87250713E-001
9.55963736E-001
9.64888147E-001
9.71429533E-001
9.59861650E-001
9.53003241E-001
1.00000000E+000
9.51270229E-001
9.80066850E-001
9.55818474E-001
9.52794108E-001
9.92694819E-001
9.50574702E-001
9.65763905E-001
9.60084178E-001
9.52549520E-001
9.50393267E-001
9.73152977E-001
9.55767294E-001
9.50041990E-001
9.49159378E-001
9.83418457E-001
9.52247917E-001
9.60346347E-001
9.49714146E-001
9.66593785E-001
9.55568123E-001
9.48559194E-001
1.00000000E+000
9.49852039E-001
9.75232820E-001
9.51915237E-001
9.47752492E-001
9.49400001E-001
9.89156131E-001
9.60680318E-001
9.55501733E-001
9.47361207E-001
9.67948477E-001
9.51500988E-001
9.46832258E-001
9.46852981E-001
9.45982548E-001
9.78165789E-001
9.45730966E-001
9.46828892E-001
9.55211619E-001
9.61064020E-001
9.51016872E-001
9.47240026E-001
1.00000000E+000
9.44935204E-001
9.69224605E-001
9.44657810E-001
9.46478147E-001
9.86186517E-001
9.55098128E-001
9.50417262E-001
9.44080546E-001
9.61519651E-001
9.44667650E-001
9.47004368E-001
9.43572446E-001
9.43393440E-001
9.73225836E-001
9.42925495E-001
9.42667574E-001
9.49714319E-001
9.54599717E-001
9.46025336E-001
9.42253844E-001
1.00000000E+000
9.41961028E-001
9.63315901E-001
9.41513586E-001
9.42161311E-001
9.81697689E-001
9.42187714E-001
9.41171144E-001
9.40971020E-001
9.48780554E-001
9.45028214E-001
9.54294733E-001
9.42198629E-001
9.40246026E-001
9.65395822E-001
9.39943949E-001
9.39685559E-001
9.43585525E-001
9.47637845E-001
9.40897760E-001
9.39178544E-001
1.00000000E+000
9.38679923E-001
9.54317535E-001
9.38708930E-001
9.38119453E-001
9.38267062E-001
9.37575580E-001
9.73901018E-001
9.38047878E-001
9.42044483E-001
9.39243643E-001
9.37536969E-001
9.45979432E-001
9.36710830E-001
9.36743235E-001
9.53376936E-001
9.37144411E-001
9.37314323E-001
9.34863559E-001
9.35049689E-001
9.39766399E-001
9.36123235E-001
9.34586607E-001
1.00000000E+000
9.43747252E-001
9.34321315E-001
9.35747644E-001
9.52695688E-001
9.34982964E-001
9.33725737E-001
9.32968275E-001
9.35193384E-001
9.34837862E-001
9.33244258E-001
9.37110992E-001
9.33169211E-001
9.33460888E-001
9.31624703E-001
9.33623415E-001
9.40187775E-001
9.34469294E-001
9.42128204E-001
9.31121106E-001
9.34226050E-001
9.31126542E-001
9.30540085E-001
9.31901782E-001
9.33378292E-001
9.43437068E-001
9.30708477E-001
9.33111918E-001
9.33162450E-001
9.30425051E-001
9.32184323E-001
9.27829322E-001
9.27468474E-001
9.32608417E-001
9.33806016E-001
9.27068399E-001
9.27679597E-001
9.11080815E-001
9.27922130E-001
9.26439257E-001
9.30039893E-001
9.30520092E-001
9.27567590E-001
9.25326884E-001
9.27881189E-001
9.32002907E-001
9.31691805E-001
9.27473869E-001
9.30044376E-001
9.30834662E-001
9.27392597E-001
9.23119345E-001
9.22517702E-001
9.23096876E-001
9.22005073E-001
9.23308701E-001
9.22395327E-001
8.93092666E-001
9.30768091E-001
9.23450414E-001
9.27306036E-001
9.30160573E-001
9.19651554E-001
9.23750655E-001
9.09236213E-001
9.18828670E-001
9.27191986E-001
9.28951318E-001
9.23895304E-001
9.18465687E-001
9.16578646E-001
9.13174545E-001
9.29686242E-001
9.24161043E-001
9.29398146E-001
9.18315618E-001
9.27057422E-001
9.28435124E-001
9.24282066E-001
8.77756903E-001
9.18283774E-001
9.10195616E-001
9.14826947E-001
9.18935748E-001
9.13004457E-001
8.91679941E-001
9.26867226E-001
9.19528588E-001
9.24484724E-001
9.28569295E-001
9.08660419E-001
9.20089802E-001
9.00689343E-001
9.27931475E-001
9.10126411E-001
9.20602820E-001
9.24539298E-001
9.12130819E-001
9.26624468E-001
9.00417969E-001
9.12262035E-001
9.05973280E-001
9.21083446E-001
9.27621364E-001
8.63567106E-001
9.27268174E-001
9.24642034E-001
9.12958940E-001
8.76956067E-001
9.13956502E-001
9.07653580E-001
9.26298167E-001
9.21506513E-001
8.99324874E-001
9.15045567E-001
8.86275027E-001
9.03918898E-001
9.15898186E-001
9.24586412E-001
9.21887464E-001
9.26587940E-001
9.16829110E-001
8.97958846E-001
8.88185060E-001
9.25908752E-001
9.05689419E-001
9.17558441E-001
9.01807815E-001
9.22194072E-001
9.06426902E-001
9.24548428E-001
8.50654697E-001
8.89051588E-001
8.62904575E-001
9.18348530E-001
8.96536715E-001
9.07140144E-001
9.08738681E-001
9.25727395E-001
8.73084319E-001
9.25407891E-001
9.10165317E-001
9.22446753E-001
9.18952206E-001
9.11502405E-001
9.24340313E-001
9.00303938E-001
8.88737656E-001
8.76200492E-001
9.12718113E-001
8.95200712E-001
9.22604783E-001
9.19594722E-001
9.13863691E-001
9.24827855E-001
8.88474121E-001
8.77945793E-001
8.38299852E-001
9.24126130E-001
8.50224572E-001
8.99749454E-001
9.14904448E-001
9.20054268E-001
8.94070574E-001
8.60193440E-001
9.01045788E-001
9.22696455E-001
9.03052622E-001
8.79072275E-001
9.15879611E-001
9.05038401E-001
8.87729744E-001
9.06706891E-001
8.63901705E-001
9.24112900E-001
9.20530599E-001
9.23728766E-001
9.08393671E-001
9.16750603E-001
8.94264558E-001
8.79507395E-001
9.22674533E-001
9.09821777E-001
8.66732268E-001
8.87295770E-001
9.17553133E-001
9.20820889E-001
9.11275294E-001
8.26664964E-001
8.37932325E-001
8.48142816E-001
9.23304934E-001
8.68608106E-001
8.79713958E-001
9.12501107E-001
9.22573991E-001
8.94599617E-001
8.97219237E-001
9.18243769E-001
8.99559422E-001
8.52247984E-001
8.86684033E-001
9.21107944E-001
9.01752842E-001
8.70103969E-001
9.13746031E-001
9.03748072E-001
8.79753564E-001
8.55512034E-001
9.22684116E-001
9.05632773E-001
9.18859733E-001
9.22343341E-001
9.14778197E-001
8.70939024E-001
9.07360103E-001
8.87813831E-001
9.21201968E-001
8.58239367E-001
8.26407883E-001
8.15348263E-001
8.36380178E-001
8.79776668E-001
9.08994196E-001
9.15816684E-001
9.19354302E-001
8.40686152E-001
8.60258888E-001
8.90979267E-001
9.22022024E-001
8.71767921E-001
8.93879030E-001
9.10488507E-001
8.96415565E-001
9.21275499E-001
8.87517808E-001
8.44416522E-001
9.16648292E-001
8.98907249E-001
8.79849718E-001
9.19764927E-001
9.11895639E-001
9.01094863E-001
8.61928028E-001
8.72235613E-001
8.47550474E-001
9.03265528E-001
9.21552341E-001
8.15123826E-001
9.17473124E-001
8.25162929E-001
8.04476065E-001
9.13167449E-001
9.05171060E-001
9.21050945E-001
8.63211024E-001
9.20037133E-001
8.50262757E-001
8.80028542E-001
8.29610727E-001
9.07068855E-001
8.72881298E-001
9.14348995E-001
8.87924670E-001
8.33544082E-001
8.90978763E-001
9.17908031E-001
8.52408929E-001
8.93783413E-001
8.64341217E-001
8.84327268E-001
9.08724750E-001
8.96444850E-001
9.20906657E-001
8.37121803E-001
8.80358532E-001
9.15391809E-001
9.20128352E-001
8.98901528E-001
8.73359454E-001
9.10371856E-001
8.54371325E-001
8.14156768E-001
8.04311187E-001
9.18536435E-001
9.01238517E-001
8.40161683E-001
8.65340319E-001
7.93802431E-001
8.18680194E-001
9.20618457E-001
9.03400018E-001
9.16151707E-001
9.11809195E-001
8.55919909E-001
8.42887918E-001
8.22828492E-001
9.19076475E-001
8.74090362E-001
9.20125027E-001
9.05455103E-001
8.85194768E-001
8.66314062E-001
8.88494590E-001
8.26610592E-001
8.80422304E-001
9.13205231E-001
8.91462230E-001
8.45206689E-001
9.07346587E-001
8.57481264E-001
8.94373062E-001
8.76244725E-001
9.16850832E-001
8.30055831E-001
9.20155789E-001
8.03512395E-001
7.93656270E-001
8.96991958E-001
9.19367166E-001
9.14301157E-001
8.67313662E-001
7.83420496E-001
8.08086493E-001
8.47321613E-001
9.09188453E-001
8.99575356E-001
8.33090410E-001
9.17753636E-001
8.58786644E-001
8.12334682E-001
9.01892812E-001
9.19985001E-001
8.69976034E-001
8.16350177E-001
8.49205407E-001
9.15291344E-001
8.35902451E-001
9.10891751E-001
8.82974064E-001
9.18423872E-001
9.04179446E-001
8.86406011E-001
8.78015708E-001
8.60224095E-001
8.19990041E-001
8.89603831E-001
8.72529593E-001
9.12294361E-001
7.93017926E-001
8.38348333E-001
8.92660586E-001
9.06213666E-001
7.83309466E-001
8.50994230E-001
7.97620930E-001
8.23392238E-001
8.95512204E-001
7.73181333E-001
9.19220477E-001
8.01973354E-001
9.13555438E-001
8.61521397E-001
8.98244314E-001
8.40712768E-001
9.08311422E-001
8.26454731E-001
8.06095063E-001
8.52701185E-001
8.77660206E-001
9.00797582E-001
9.15461791E-001
9.19556651E-001
9.19468027E-001
8.72180621E-001
8.64654183E-001
8.09969397E-001
8.81047557E-001
8.29325654E-001
9.18606677E-001
8.42803034E-001
7.73126461E-001
8.84686192E-001
9.03216220E-001
9.17734997E-001
7.82771649E-001
8.13561049E-001
9.16674091E-001
8.54393895E-001
7.87388823E-001
8.87769263E-001
9.05449449E-001
8.31950913E-001
7.63138005E-001
7.91791744E-001
9.10550653E-001
8.91076760E-001
8.44930404E-001
8.94302722E-001
8.16954868E-001
8.66022898E-001
9.14001888E-001
7.96039905E-001
8.72119587E-001
8.97256953E-001
8.56106958E-001
8.34454812E-001
9.12120895E-001
8.20062599E-001
8.75935527E-001
8.00029944E-001
7.72767968E-001
8.46878391E-001
8.79555573E-001
7.63092264E-001
8.03849623E-001
9.19468027E-001
9.19380634E-001
9.18955981E-001
9.08254951E-001
8.23057619E-001
8.36823743E-001
9.18323313E-001
7.77260757E-001
8.66127473E-001
8.83077826E-001
8.57870096E-001
9.17374519E-001
8.07411282E-001
7.81712664E-001
8.48947107E-001
9.05504441E-001
7.53182911E-001
9.16230760E-001
8.99837444E-001
8.86470244E-001
8.25806584E-001
7.86017401E-001
8.90116849E-001
9.14713582E-001
8.93492867E-001
8.39140017E-001
8.10817191E-001
7.62871010E-001
7.90144897E-001
9.02537958E-001
9.12986654E-001
8.59726058E-001
8.67782796E-001
8.50916424E-001
8.28535139E-001
7.94080334E-001
8.14007682E-001
7.67447165E-001
8.71966401E-001
9.10929404E-001
7.53147228E-001
8.41419828E-001
8.78561534E-001
7.97858557E-001
9.08644009E-001
8.17080864E-001
7.71770094E-001
8.31079091E-001
8.96589291E-001
8.61645914E-001
8.82348698E-001
7.76145482E-001
8.53061036E-001
7.43372227E-001
8.01426151E-001
9.05952619E-001
8.43703092E-001
7.80342364E-001
8.73745825E-001
8.20008335E-001
8.92658421E-001
8.04884607E-001
8.33682990E-001
9.03050157E-001
7.84419141E-001
7.52872901E-001
7.57539213E-001
8.55162902E-001
8.63699458E-001
7.88307781E-001
8.22867304E-001
8.46027138E-001
8.84576143E-001
8.08143313E-001
8.88500974E-001
8.99763701E-001
7.43308054E-001
7.61905777E-001
8.36166490E-001
7.92078198E-001
8.78102288E-001
7.66311852E-001
8.11356569E-001
7.33633549E-001
8.96214278E-001
8.25657456E-001
7.70589591E-001
8.57473579E-001
7.95676912E-001
8.48397001E-001
8.65867317E-001
7.74737246E-001
8.38771855E-001
8.73338039E-001
8.14403512E-001
8.92253373E-001
7.99176434E-001
7.78765894E-001
8.28427362E-001
8.80691228E-001
7.43024896E-001
7.47641651E-001
7.82644370E-001
8.50863341E-001
8.59786715E-001
7.52152152E-001
8.17470887E-001
8.02544268E-001
7.33582685E-001
8.41313670E-001
8.88071618E-001
8.68213597E-001
7.56591317E-001
8.31199239E-001
7.86431004E-001
7.60909228E-001
8.75581222E-001
7.24009077E-001
8.05844138E-001
7.65143554E-001
8.20417155E-001
8.83452473E-001
7.90065101E-001
8.53406737E-001
8.44023297E-001
8.62338957E-001
7.69243689E-001
8.33992866E-001
8.70655274E-001
8.09066209E-001
7.93649171E-001
7.73257527E-001
7.33329414E-001
7.37936502E-001
8.23442592E-001
8.78566738E-001
7.42455282E-001
7.46909152E-001
7.23961994E-001
7.77142030E-001
8.46715531E-001
8.56092155E-001
7.97095915E-001
8.12257041E-001
7.51271666E-001
8.36848377E-001
8.64923862E-001
7.55547886E-001
7.80948996E-001
7.14440117E-001
8.26394353E-001
8.73289336E-001
7.59736569E-001
8.00542126E-001
8.15427813E-001
7.84648468E-001
7.63821207E-001
8.49611959E-001
8.39760284E-001
8.58880198E-001
7.23734411E-001
8.29474556E-001
7.28322586E-001
8.67762180E-001
8.03879574E-001
7.32841706E-001
7.67834262E-001
7.88289279E-001
7.37310656E-001
8.18603915E-001
7.14398095E-001
7.41694721E-001
7.71736026E-001
7.46021153E-001
8.42783848E-001
8.52529441E-001
7.91858049E-001
8.07266247E-001
8.32525238E-001
7.04964227E-001
8.61841237E-001
7.50254348E-001
7.75593529E-001
8.21815132E-001
7.54426709E-001
7.95394108E-001
8.10579939E-001
7.79344657E-001
7.58506061E-001
7.14188270E-001
7.18765419E-001
8.45893218E-001
7.23276952E-001
8.35745669E-001
8.55679538E-001
7.27748561E-001
8.25065439E-001
7.62528345E-001
7.98901603E-001
7.32153287E-001
7.83087160E-001
7.04923424E-001
7.36502491E-001
8.13989094E-001
7.66469247E-001
7.40788401E-001
6.95535350E-001
7.86739710E-001
8.38976486E-001
8.49156226E-001
8.02405561E-001
7.45005246E-001
8.28401033E-001
7.70364178E-001
8.17363209E-001
7.49169441E-001
7.90422935E-001
7.04726203E-001
7.09278402E-001
7.13781835E-001
7.74200245E-001
8.05927274E-001
7.53256412E-001
7.18251374E-001
7.22663519E-001
8.42412127E-001
8.31806355E-001
7.27036890E-001
6.95496515E-001
7.57309127E-001
8.20874582E-001
7.94041200E-001
7.78007857E-001
7.31347690E-001
8.09475222E-001
7.35617597E-001
7.61284211E-001
6.86190834E-001
7.81787654E-001
7.39824371E-001
7.97729895E-001
8.35342601E-001
8.24388886E-001
7.65250372E-001
7.43991943E-001
8.13086892E-001
6.99843704E-001
6.95306935E-001
7.04328562E-001
7.08791313E-001
7.85560870E-001
7.13204702E-001
7.48102690E-001
7.69147241E-001
8.01383754E-001
7.17586249E-001
6.86152003E-001
7.21922911E-001
8.28077798E-001
7.52180713E-001
7.26217787E-001
8.16753953E-001
7.89342641E-001
7.73064940E-001
7.30476354E-001
8.05146537E-001
6.76890903E-001
7.56215913E-001
7.34685656E-001
7.76929610E-001
7.93142246E-001
7.60229833E-001
8.20529599E-001
6.90468109E-001
6.94937080E-001
7.38871934E-001
6.85964323E-001
6.99383242E-001
7.03792200E-001
8.08907833E-001
7.08176802E-001
7.80847252E-001
7.43005952E-001
7.12522759E-001
7.64222218E-001
6.76851405E-001
7.96989448E-001
7.16843744E-001
7.47135151E-001
7.21126306E-001
7.68208933E-001
8.12814112E-001
7.84734237E-001
7.25385039E-001
6.67675146E-001
7.51215188E-001
8.00880141E-001
7.29609146E-001
7.72201159E-001
6.85584507E-001
6.81145823E-001
6.90015218E-001
6.76662868E-001
7.88707179E-001
6.94408339E-001
7.55312379E-001
7.33813277E-001
6.98788743E-001
7.03138278E-001
8.04859111E-001
7.07468519E-001
7.37991333E-001
7.76206572E-001
6.67634566E-001
7.59369977E-001
7.11776344E-001
7.92676821E-001
7.16058577E-001
7.42156624E-001
7.63469530E-001
6.58505806E-001
7.80248609E-001
7.20329116E-001
7.46309785E-001
7.96764605E-001
7.24569808E-001
6.76292272E-001
6.80691717E-001
6.71878022E-001
6.85069157E-001
6.67438407E-001
6.89433528E-001
7.67544931E-001
6.93778615E-001
7.84324958E-001
7.50460730E-001
7.28812360E-001
6.98111995E-001
7.02428150E-001
6.58462138E-001
7.33024628E-001
7.71688922E-001
7.06734080E-001
7.54618527E-001
7.88472372E-001
7.11025746E-001
7.37254767E-001
6.49428097E-001
7.15309642E-001
7.58787814E-001
7.75829777E-001
6.71414518E-001
6.67039886E-001
6.75758880E-001
7.41459017E-001
6.62669437E-001
6.80107212E-001
7.19584382E-001
6.58257441E-001
6.84435236E-001
6.88763866E-001
7.62987207E-001
6.93082047E-001
7.23855610E-001
7.45699490E-001
7.80066066E-001
6.97395931E-001
6.49382303E-001
7.28126114E-001
7.01709393E-001
7.67214387E-001
7.49923519E-001
7.06013634E-001
7.32399616E-001
6.40402557E-001
7.10328272E-001
6.62179167E-001
6.66495866E-001
7.54204091E-001
6.57852232E-001
6.70808706E-001
7.71498994E-001
6.53516249E-001
6.75118718E-001
6.49160875E-001
7.36684574E-001
6.79428684E-001
7.14630591E-001
6.83740645E-001
6.88055084E-001
7.58483089E-001
7.18954945E-001
7.40981658E-001
6.92374872E-001
6.40351320E-001
6.96699043E-001
7.23267108E-001
7.62839572E-001
7.45306130E-001
7.01031592E-001
7.27614244E-001
6.31483428E-001
6.57264860E-001
6.53000404E-001
6.61549017E-001
6.48709148E-001
7.05370707E-001
6.65820584E-001
6.44433214E-001
6.70111845E-001
7.49654314E-001
6.40113982E-001
6.74403210E-001
7.31953330E-001
7.09722384E-001
6.78710998E-001
6.83029871E-001
7.14083833E-001
7.54049949E-001
6.31429019E-001
6.87359879E-001
7.36341834E-001
6.91710682E-001
7.18464190E-001
7.40731357E-001
6.96067212E-001
6.48088460E-001
6.52315404E-001
6.22626008E-001
6.43865391E-001
6.56554165E-001
6.39641173E-001
7.22859358E-001
6.60803719E-001
6.35411767E-001
7.00453164E-001
6.65073808E-001
6.31165839E-001
6.69359034E-001
7.45185316E-001
6.73669762E-001
7.04841055E-001
7.27282612E-001
6.77997751E-001
7.09266834E-001
6.22563824E-001
6.82353318E-001
7.31727776E-001
6.86726904E-001
7.13693686E-001
6.43134199E-001
6.91128882E-001
6.38950446E-001
6.47310360E-001
6.34802055E-001
7.36214005E-001
6.51525863E-001
6.30626485E-001
6.13897029E-001
6.55750885E-001
6.26476770E-001
7.18167503E-001
6.60014175E-001
6.95549254E-001
6.22277485E-001
6.64300700E-001