# vtk DataFile Version 1.0
ECM-CELL DIFFUSION-MECHANICS
ASCII

DATASET UNSTRUCTURED_GRID
POINTS      697 float
1.50000000E+001 3.00000000E+001 0.00000000E+000
1.40000000E+001 3.00000000E+001 0.00000000E+000
1.42860000E+001 2.92860000E+001 0.00000000E+000
1.30000000E+001 3.00000000E+001 0.00000000E+000
1.35710000E+001 2.85710000E+001 0.00000000E+000
1.27960000E+001 2.94990000E+001 0.00000000E+000
1.30810000E+001 2.87840000E+001 0.00000000E+000
1.25910000E+001 2.89970000E+001 0.00000000E+000
1.20000000E+001 3.00000000E+001 0.00000000E+000
1.28570000E+001 2.78570000E+001 0.00000000E+000
1.18970000E+001 2.87080000E+001 0.00000000E+000
1.11010000E+001 2.92100000E+001 0.00000000E+000
1.16730000E+001 2.77810000E+001 0.00000000E+000
1.10000000E+001 3.00000000E+001 0.00000000E+000
1.21430000E+001 2.71430000E+001 0.00000000E+000
1.12030000E+001 2.84200000E+001 0.00000000E+000
1.00000000E+001 3.00000000E+001 0.00000000E+000
1.14290000E+001 2.64290000E+001 0.00000000E+000
1.01170000E+001 2.79700000E+001 0.00000000E+000
9.00000000E+000 3.00000000E+001 0.00000000E+000
1.07140000E+001 2.57140000E+001 0.00000000E+000
9.01610000E+000 2.87600000E+001 0.00000000E+000
9.87330000E+000 2.66170000E+001 0.00000000E+000
9.03230000E+000 2.75200000E+001 0.00000000E+000
8.00000000E+000 3.00000000E+001 0.00000000E+000
1.00000000E+001 2.50000000E+001 0.00000000E+000
7.82990000E+000 2.77550000E+001 0.00000000E+000
8.30970000E+000 2.65020000E+001 0.00000000E+000
7.00000000E+000 3.00000000E+001 0.00000000E+000
9.28570000E+000 2.42860000E+001 0.00000000E+000
6.81370000E+000 2.89950000E+001 0.00000000E+000
8.43650000E+000 2.48840000E+001 0.00000000E+000
6.62750000E+000 2.79900000E+001 0.00000000E+000
7.58720000E+000 2.54830000E+001 0.00000000E+000
6.00000000E+000 3.00000000E+001 0.00000000E+000
8.57140000E+000 2.35710000E+001 0.00000000E+000
6.22710000E+000 2.71150000E+001 0.00000000E+000
6.70700000E+000 2.58620000E+001 0.00000000E+000
5.63920000E+000 2.80950000E+001 0.00000000E+000
6.92450000E+000 2.47070000E+001 0.00000000E+000
5.82670000E+000 2.62400000E+001 0.00000000E+000
5.00000000E+000 3.00000000E+001 0.00000000E+000
7.85710000E+000 2.28570000E+001 0.00000000E+000
4.82550000E+000 2.91000000E+001 0.00000000E+000
7.05940000E+000 2.33940000E+001 0.00000000E+000
4.65090000E+000 2.81990000E+001 0.00000000E+000
5.04550000E+000 2.64360000E+001 0.00000000E+000
5.35090000E+000 2.55610000E+001 0.00000000E+000
6.26170000E+000 2.39310000E+001 0.00000000E+000
4.45760000E+000 2.74150000E+001 0.00000000E+000
5.56840000E+000 2.44060000E+001 0.00000000E+000
4.00000000E+000 3.00000000E+001 0.00000000E+000
7.14290000E+000 2.21430000E+001 0.00000000E+000
4.26420000E+000 2.66310000E+001 0.00000000E+000
4.87520000E+000 2.48810000E+001 0.00000000E+000
3.73110000E+000 2.82240000E+001 0.00000000E+000
4.12630000E+000 2.60990000E+001 0.00000000E+000
4.43180000E+000 2.52240000E+001 0.00000000E+000
5.49440000E+000 2.32170000E+001 0.00000000E+000
3.98830000E+000 2.55660000E+001 0.00000000E+000
3.00000000E+000 3.00000000E+001 0.00000000E+000
3.47670000E+000 2.66210000E+001 0.00000000E+000
6.42860000E+000 2.14290000E+001 0.00000000E+000
2.90560000E+000 2.91240000E+001 0.00000000E+000
4.19570000E+000 2.43740000E+001 0.00000000E+000
2.81130000E+000 2.82480000E+001 0.00000000E+000
5.57780000E+000 2.19660000E+001 0.00000000E+000
3.40700000E+000 2.53770000E+001 0.00000000E+000
2.75020000E+000 2.74290000E+001 0.00000000E+000
4.72710000E+000 2.25030000E+001 0.00000000E+000
2.68920000E+000 2.66100000E+001 0.00000000E+000
4.12160000E+000 2.31850000E+001 0.00000000E+000
2.75740000E+000 2.58990000E+001 0.00000000E+000
2.00000000E+000 3.00000000E+001 0.00000000E+000
3.51610000E+000 2.38670000E+001 0.00000000E+000
3.17080000E+000 2.45270000E+001 0.00000000E+000
2.82560000E+000 2.51870000E+001 0.00000000E+000
5.71430000E+000 2.07140000E+001 0.00000000E+000
1.86760000E+000 2.82240000E+001 0.00000000E+000
1.80160000E+000 2.65190000E+001 0.00000000E+000
1.98440000E+000 2.49620000E+001 0.00000000E+000
3.74780000E+000 2.16710000E+001 0.00000000E+000
1.00000000E+000 3.00000000E+001 0.00000000E+000
2.61170000E+000 2.34180000E+001 0.00000000E+000
9.61960000E-001 2.91000000E+001 0.00000000E+000
5.00000000E+000 2.00000000E+001 0.00000000E+000
9.23930000E-001 2.81990000E+001 0.00000000E+000
9.18950000E-001 2.73140000E+001 0.00000000E+000
9.13980000E-001 2.64290000E+001 0.00000000E+000
1.02860000E+000 2.55830000E+001 0.00000000E+000
3.88420000E+000 2.04200000E+001 0.00000000E+000
1.14330000E+000 2.47370000E+001 0.00000000E+000
5.00000000E+000 1.90000000E+001 0.00000000E+000
1.42530000E+000 2.38530000E+001 0.00000000E+000
-1.77640000E-015 3.00000000E+001 0.00000000E+000
1.70730000E+000 2.29680000E+001 0.00000000E+000
2.23790000E+000 2.19040000E+001 0.00000000E+000
-5.28010000E-002 2.81590000E+001 0.00000000E+000
2.76840000E+000 2.08400000E+001 0.00000000E+000
-3.58220000E-002 2.63470000E+001 0.00000000E+000
5.00000000E+000 1.80000000E+001 0.00000000E+000
1.54440000E-001 2.45700000E+001 0.00000000E+000
-1.00000000E+000 3.00000000E+001 0.00000000E+000
-1.01480000E+000 2.90600000E+001 0.00000000E+000
5.93400000E-001 2.27310000E+001 0.00000000E+000
2.67450000E+000 1.95810000E+001 0.00000000E+000
-1.02950000E+000 2.81190000E+001 0.00000000E+000
-1.00760000E+000 2.71920000E+001 0.00000000E+000
3.79030000E+000 1.81610000E+001 0.00000000E+000
5.00000000E+000 1.70000000E+001 0.00000000E+000
-9.85630000E-001 2.62650000E+001 0.00000000E+000
1.32910000E+000 2.06460000E+001 0.00000000E+000
-9.10010000E-001 2.53340000E+001 0.00000000E+000
-8.34400000E-001 2.44030000E+001 0.00000000E+000
-6.77450000E-001 2.34480000E+001 0.00000000E+000
-2.00000000E+000 3.00000000E+001 0.00000000E+000
2.58070000E+000 1.83220000E+001 0.00000000E+000
-2.02230000E+000 2.80830000E+001 0.00000000E+000
5.00000000E+000 1.60000000E+001 0.00000000E+000
-5.20490000E-001 2.24930000E+001 0.00000000E+000
-1.98910000E+000 2.61860000E+001 0.00000000E+000
-3.15340000E-001 2.14730000E+001 0.00000000E+000
2.57510000E+000 1.72380000E+001 0.00000000E+000
-1.87360000E+000 2.42840000E+001 0.00000000E+000
-1.10190000E-001 2.04520000E+001 0.00000000E+000
3.78480000E+000 1.60770000E+001 0.00000000E+000
-3.00000000E+000 3.00000000E+001 0.00000000E+000
1.29260000E+000 1.82970000E+001 0.00000000E+000
5.00000000E+000 1.50000000E+001 0.00000000E+000
-3.00750000E+000 2.90230000E+001 0.00000000E+000
-3.01500000E+000 2.80470000E+001 0.00000000E+000
-3.00380000E+000 2.70770000E+001 0.00000000E+000
-1.64690000E+000 2.23500000E+001 0.00000000E+000
-2.99260000E+000 2.61070000E+001 0.00000000E+000
-5.27910000E-002 1.93610000E+001 0.00000000E+000
-2.95270000E+000 2.51370000E+001 0.00000000E+000
2.56960000E+000 1.61540000E+001 0.00000000E+000
-2.91280000E+000 2.41660000E+001 0.00000000E+000
5.00000000E+000 1.40000000E+001 0.00000000E+000
-4.00000000E+000 3.00000000E+001 0.00000000E+000
-1.36060000E+000 2.03300000E+001 0.00000000E+000
4.60210000E-003 1.82710000E+001 0.00000000E+000
-2.84300000E+000 2.31860000E+001 0.00000000E+000
-4.00750000E+000 2.80230000E+001 0.00000000E+000
2.57740000E+000 1.51120000E+001 0.00000000E+000
-3.99630000E+000 2.60540000E+001 0.00000000E+000
-2.77330000E+000 2.22060000E+001 0.00000000E+000
1.31420000E+000 1.61550000E+001 0.00000000E+000
3.79260000E+000 1.40350000E+001 0.00000000E+000
3.16910000E-002 1.72140000E+001 0.00000000E+000
5.00000000E+000 1.30000000E+001 0.00000000E+000
-2.69210000E+000 2.12070000E+001 0.00000000E+000
-3.95640000E+000 2.40830000E+001 0.00000000E+000
-5.00000000E+000 3.00000000E+001 0.00000000E+000
-5.00000000E+000 2.90000000E+001 0.00000000E+000
-1.25310000E+000 1.82120000E+001 0.00000000E+000
-5.00000000E+000 2.80000000E+001 0.00000000E+000
-2.61100000E+000 2.02080000E+001 0.00000000E+000
2.58530000E+000 1.40700000E+001 0.00000000E+000
-5.00000000E+000 2.70000000E+001 0.00000000E+000
5.87790000E-002 1.61570000E+001 0.00000000E+000
-5.00000000E+000 2.60000000E+001 0.00000000E+000
-3.88660000E+000 2.21030000E+001 0.00000000E+000
5.00000000E+000 1.20000000E+001 0.00000000E+000
-5.00000000E+000 2.50000000E+001 0.00000000E+000
-2.56090000E+000 1.91810000E+001 0.00000000E+000
-5.00000000E+000 2.40000000E+001 0.00000000E+000
1.34160000E+000 1.40680000E+001 0.00000000E+000
2.58460000E+000 1.30230000E+001 0.00000000E+000
7.83870000E-002 1.51120000E+001 0.00000000E+000
-2.51090000E+000 1.81540000E+001 0.00000000E+000
-5.00000000E+000 2.30000000E+001 0.00000000E+000
3.79200000E+000 1.19870000E+001 0.00000000E+000
-3.80550000E+000 2.01040000E+001 0.00000000E+000
-1.20760000E+000 1.61220000E+001 0.00000000E+000
5.00000000E+000 1.10000000E+001 0.00000000E+000
-5.00000000E+000 2.20000000E+001 0.00000000E+000
-2.49240000E+000 1.71210000E+001 0.00000000E+000
9.79950000E-002 1.40660000E+001 0.00000000E+000
2.58390000E+000 1.19750000E+001 0.00000000E+000
-5.00000000E+000 2.10000000E+001 0.00000000E+000
-3.75540000E+000 1.80770000E+001 0.00000000E+000
-2.47390000E+000 1.60870000E+001 0.00000000E+000
5.00000000E+000 1.00000000E+001 0.00000000E+000
-5.00000000E+000 2.00000000E+001 0.00000000E+000
1.11550000E-001 1.30100000E+001 0.00000000E+000
1.35450000E+000 1.19640000E+001 0.00000000E+000
-1.17280000E+000 1.40530000E+001 0.00000000E+000
2.60470000E+000 1.09260000E+001 0.00000000E+000
-5.00000000E+000 1.90000000E+001 0.00000000E+000
3.81270000E+000 9.93830000E+000 0.00000000E+000
-2.45880000E+000 1.50630000E+001 0.00000000E+000
5.00000000E+000 9.00000000E+000 0.00000000E+000
-5.00000000E+000 1.80000000E+001 0.00000000E+000
-3.73700000E+000 1.60440000E+001 0.00000000E+000
1.25110000E-001 1.19530000E+001 0.00000000E+000
2.62540000E+000 9.87670000E+000 0.00000000E+000
-2.44360000E+000 1.40390000E+001 0.00000000E+000
-5.00000000E+000 1.70000000E+001 0.00000000E+000
5.00000000E+000 8.00000000E+000 0.00000000E+000
-1.14850000E+000 1.19670000E+001 0.00000000E+000
1.38310000E-001 1.08460000E+001 0.00000000E+000
-2.43280000E+000 1.30100000E+001 0.00000000E+000
1.38840000E+000 9.80800000E+000 0.00000000E+000
[...]
POINT_DATA      697
SCALARS Ux float
LOOKUP_TABLE default
1.00000000E+000
9.99612711E-001
1.00000000E+000
9.98497266E-001
1.00000000E+000
9.98246638E-001
9.99161338E-001
9.98173699E-001
9.96583089E-001
1.00000000E+000
9.96979935E-001
9.94468692E-001
9.97665082E-001
9.93935781E-001
1.00000000E+000
9.95455721E-001
9.90550108E-001
1.00000000E+000
9.92473389E-001
9.86455336E-001
1.00000000E+000
9.87036800E-001
9.94223914E-001
9.88678299E-001
9.81708124E-001
1.00000000E+000
9.82285546E-001
9.87152502E-001
9.76380764E-001
1.00000000E+000
9.75559814E-001
9.92938069E-001
9.75129437E-001
9.85661410E-001
9.70598325E-001
1.00000000E+000
9.73502169E-001
9.78818316E-001
9.68905818E-001
9.83666874E-001
9.71835621E-001
9.64498605E-001
1.00000000E+000
9.63459392E-001
9.90412676E-001
9.62452276E-001
9.65859902E-001
9.69090655E-001
9.81125827E-001
9.61270279E-001
9.73100134E-001
9.58258127E-001
1.00000000E+000
9.59964840E-001
9.65758584E-001
9.56419989E-001
9.58890517E-001
9.61557897E-001
9.75724895E-001
9.57714445E-001
9.52069369E-001
9.54101143E-001
1.00000000E+000
9.51392785E-001
9.59555458E-001
9.50484422E-001
9.84791409E-001
9.52667749E-001
9.49565865E-001
9.66895576E-001
9.48365784E-001
9.58142867E-001
9.47944195E-001
9.46121747E-001
9.52529554E-001
9.49598375E-001
9.47375586E-001
1.00000000E+000
9.44643738E-001
9.42023888E-001
9.39894903E-001
9.52212421E-001
9.40601594E-001
9.40579026E-001
9.40160443E-001
1.00000000E+000
9.39211434E-001
9.37944720E-001
9.36111998E-001
9.34530582E-001
9.50984795E-001
9.32417172E-001
9.31451900E-001
9.31123867E-001
9.35671039E-001
9.29402955E-001
9.27971155E-001
9.34174341E-001
9.25333511E-001
9.30402040E-001
8.84696425E-001
9.24795039E-001
9.31462258E-001
9.31038598E-001
9.17288245E-001
9.08616265E-001
9.29854725E-001
9.28073147E-001
8.89172516E-001
8.57463003E-001
9.25477230E-001
9.04293530E-001
9.22250035E-001
9.18069371E-001
9.13143035E-001
9.28089748E-001
8.78065520E-001
9.26329815E-001
8.34930924E-001
9.06900543E-001
9.21263125E-001
8.99282889E-001
8.55394201E-001
9.12544258E-001
8.89693470E-001
8.34054445E-001
9.25622212E-001
8.67380751E-001
8.11583126E-001
9.25148336E-001
9.23734159E-001
9.21418029E-001
8.99452614E-001
9.18098771E-001
8.74664462E-001
9.13798357E-001
8.32688128E-001
9.08361198E-001
7.89727926E-001
9.24126449E-001
8.80122142E-001
8.59218832E-001
9.01727960E-001
9.22155039E-001
8.10527955E-001
9.16157971E-001
8.93817666E-001
8.27404833E-001
7.90009831E-001
8.41318553E-001
7.69102216E-001
8.84329846E-001
9.05739477E-001
9.23619535E-001
9.23118489E-001
8.51727097E-001
9.21591139E-001
8.73375598E-001
7.88973441E-001
9.19020257E-001
8.22452746E-001
9.15351865E-001
8.90326055E-001
7.49112710E-001
9.10532023E-001
8.60713268E-001
9.04492408E-001
7.86652016E-001
7.68020229E-001
8.03472391E-001
8.46371205E-001
8.97180825E-001
7.48496449E-001
8.69381906E-001
8.17875394E-001
7.29435829E-001
8.88543245E-001
8.30867845E-001
7.84011819E-001
7.47443799E-001
8.78554124E-001
8.42823006E-001
8.14280504E-001
7.10122677E-001
8.67290718E-001
7.64206055E-001
7.45937619E-001
7.81380219E-001
7.27095844E-001
8.54640199E-001
7.08741925E-001
7.97059236E-001
6.91103031E-001
8.40966835E-001
8.11764559E-001
7.44278911E-001
7.07004687E-001
7.79238146E-001
8.26138473E-001
6.72366331E-001
7.43084841E-001
7.23371026E-001
7.60866350E-001
7.04803469E-001
8.10453125E-001
6.87150569E-001
7.77687921E-001
6.70121992E-001
7.94014241E-001
7.42121116E-001
6.53901830E-001
7.02455269E-001
6.67546179E-001
7.76937348E-001
7.22528098E-001
7.02492290E-001
7.41489820E-001
6.35758658E-001
6.78936869E-001
6.50915569E-001
6.61661234E-001
7.59373953E-001
6.35306233E-001
7.02671073E-001
6.34518321E-001
7.41383702E-001
6.17982699E-001
6.55479274E-001
6.33219579E-001
6.43511370E-001
7.03353824E-001
6.81906196E-001
7.23064778E-001
6.31733317E-001
6.18263754E-001
6.58071592E-001
6.00663678E-001
6.01734940E-001
6.34537075E-001
7.04433507E-001
6.18085853E-001
6.60884341E-001
6.02346665E-001
6.03578999E-001
5.83888887E-001
6.85534223E-001
6.63389306E-001
6.04547408E-001
6.08902004E-001
6.40413899E-001
6.13398421E-001
5.85672727E-001
6.66334359E-001
5.67789127E-001
6.16241990E-001
5.87356347E-001
5.69039973E-001
6.19573199E-001
5.69580191E-001
5.93310847E-001
6.46869618E-001
5.70306436E-001
5.52482249E-001
6.22854948E-001
5.70550129E-001
5.71887933E-001
5.98510021E-001
5.53659195E-001
6.26977316E-001
5.73223650E-001
5.74742861E-001
5.38111670E-001
5.53043007E-001
5.38886870E-001
5.76788742E-001
6.06404143E-001
5.38656139E-001
5.53439677E-001
5.80588404E-001
5.38013439E-001
5.24805142E-001
5.36495250E-001
5.85021785E-001
5.54765483E-001
5.35616323E-001
5.24559400E-001
5.34139737E-001
5.32898749E-001
5.12677171E-001
5.63528561E-001
5.21008500E-001
5.32277811E-001
5.12804733E-001
5.11718574E-001
5.32233123E-001
5.16169587E-001
5.09981941E-001
5.39331059E-001
5.01835440E-001
5.07058360E-001
5.07439506E-001
5.03948296E-001
5.00414746E-001
4.99527547E-001
5.07518163E-001
4.94564417E-001
4.92343679E-001
4.94729469E-001
4.87597380E-001
4.92093401E-001
4.78747625E-001
4.90547187E-001
4.85145852E-001
4.65640034E-001
4.87986044E-001
4.84268668E-001
4.84093068E-001
4.68978082E-001
4.22508124E-001
4.79291107E-001
4.82172687E-001
4.72925082E-001
4.40673515E-001
3.89364426E-001
4.64825250E-001
4.77633460E-001
4.75085844E-001
4.77141622E-001
4.54509827E-001
4.75306419E-001
3.64660578E-001
4.41608861E-001
4.62905994E-001
4.72218002E-001
3.89949019E-001
4.72466184E-001
4.25312356E-001
4.67750663E-001
3.42222613E-001
4.43762136E-001
4.62078704E-001
4.69926998E-001
4.06611738E-001
4.54957956E-001
3.19892434E-001
4.68770591E-001
4.46131866E-001
3.83982670E-001
4.62167366E-001
4.16059724E-001
3.41790288E-001
4.68113508E-001
4.35712910E-001
4.66096267E-001
2.98406730E-001
3.62241014E-001
4.48988720E-001
4.23195371E-001
4.62823987E-001
4.66553331E-001
4.58212223E-001
3.79688631E-001
4.09292385E-001
3.40656761E-001
2.77496990E-001
4.52202069E-001
4.29878215E-001
4.63874884E-001
2.97755735E-001
3.92855330E-001
4.44838253E-001
3.18394027E-001
4.65814327E-001
2.56944055E-001
4.55900335E-001
4.36068660E-001
3.75726190E-001
4.65148850E-001
4.04536657E-001
3.38539590E-001
4.25959086E-001
4.63153664E-001
2.96480907E-001
4.42564473E-001
3.56366686E-001
4.59827982E-001
2.36559341E-001
2.56904678E-001
4.14368435E-001
4.55177623E-001
2.76520934E-001
3.73433716E-001
4.01510704E-001
3.36460539E-001
4.49204479E-001
4.23947022E-001
2.16331743E-001
2.56686043E-001
2.93244786E-001
3.87392563E-001
4.41932071E-001
3.13336648E-001
4.33373177E-001
2.18099037E-001
3.72169751E-001
1.97543213E-001
2.38185752E-001
4.00301746E-001
3.37545105E-001
2.55142751E-001
4.23588994E-001
3.55933565E-001
2.89921936E-001
2.19790004E-001
4.12604112E-001
1.78815078E-001
2.71863971E-001
3.72268268E-001
2.53532715E-001
3.38976710E-001
4.00548519E-001
2.21011869E-001
2.02423658E-001
1.81974751E-001
1.61508240E-001
2.96289410E-001
2.37843831E-001
3.87436652E-001
2.74473524E-001
2.49600206E-001
3.21024536E-001
2.22165783E-001
3.73475031E-001
3.40770287E-001
1.85105448E-001
1.44163881E-001
2.45702605E-001
3.02644203E-001
2.52465520E-001
3.58692362E-001
2.23260910E-001
2.59197770E-001
2.06507209E-001
1.88024072E-001
2.35027197E-001
1.67945360E-001
1.47484347E-001
1.28162866E-001
3.43262708E-001
2.86328852E-001
2.24353277E-001
3.06564416E-001
2.64513161E-001
2.45452181E-001
1.90885358E-001
2.28028243E-001
3.27282437E-001
1.50838241E-001
1.11964890E-001
2.11637124E-001
1.94937648E-001
2.69872583E-001
2.31708430E-001
3.10838724E-001
1.98928455E-001
9.68611639E-002
1.74670432E-001
1.14215050E-001
1.33805185E-001
1.54751165E-001
2.54470040E-001
2.73508604E-001
2.35336877E-001
2.17955018E-001
2.01568272E-001
1.88469827E-001
2.94216416E-001
8.10973711E-002
1.16774843E-001
2.38995552E-001
1.58520333E-001
1.68278565E-001
2.04203131E-001
1.78017864E-001
2.77301373E-001
6.69076131E-002
1.91408918E-001
8.23429398E-002
1.78331017E-001
2.24075969E-001
2.06626178E-001
2.41722936E-001
1.00420953E-001
2.60988321E-001
1.18866267E-001
1.39511631E-001
1.55978197E-001
5.10215715E-002
1.78625021E-001
2.09095134E-001
2.44533708E-001
8.41212570E-002
1.65976046E-001
2.92957681E-002
1.20700963E-001
1.79720087E-001
5.02899388E-002
1.94988615E-001
2.11005626E-001
1.53347852E-001
2.28797651E-001
6.96022017E-002
-3.12250226E-017
1.80839961E-001
1.22545599E-001
1.38717468E-001
2.12952545E-001
8.43881561E-002
5.50156396E-002
1.53320030E-001
1.01762783E-001
1.73472348E-018
2.15691765E-002
1.67094335E-001
1.81793684E-001
4.14532429E-002
1.97915974E-001
1.24147042E-001
-3.07913417E-017
1.53329739E-001
3.09544650E-002
5.47981319E-002
8.34959030E-002
1.82798242E-001
8.91023294E-003
1.25019040E-001
1.10338559E-001
2.94902991E-017
2.26661453E-002
1.39631694E-001
1.53654177E-001
9.01837946E-002
6.81933140E-002
1.68472806E-001
1.67407949E-002
3.32153732E-002
1.25894305E-001
-2.16840434E-018
9.65684746E-002
5.34794189E-002
1.29851301E-002
1.54079621E-001
5.09744601E-003
4.34675390E-002
1.97133182E-002
7.21847403E-002
1.13023796E-001
9.82340794E-002
9.89187087E-003
1.04083409E-017
3.34591526E-002
1.26220812E-001
8.70626628E-002
2.75098406E-002
1.40447540E-001
1.25769885E-002
2.14371851E-002
1.80849656E-002
8.58248709E-003
1.00021112E-001
1.48660664E-002
4.68712190E-002
-1.38777878E-017
7.74513311E-002
1.26700216E-001
3.60935772E-003
6.82320907E-002
1.37888082E-002
2.01184236E-002
7.23236516E-003
8.83736185E-002
2.97410822E-002
9.99976883E-002
7.69622943E-002
1.00345108E-002
5.96784939E-002
1.13691186E-001
-2.03830008E-017
1.26473099E-002
1.56007429E-002
6.23070670E-003
4.86034367E-002
7.64769688E-002
1.83994411E-002
1.00432461E-001
5.74709336E-002
3.89122926E-002
2.20211359E-002
1.07697742E-002
5.09487154E-002
2.12503626E-017
3.18889654E-002
2.51775421E-003
5.10697425E-003
6.55295215E-002
2.51782997E-002
7.52121840E-002
7.06394717E-003
1.52293816E-002
8.75996685E-002
8.87041680E-003
4.33407476E-003
5.45852304E-002
3.56715207E-002
7.69783542E-018
4.14314920E-002
1.06525633E-002
3.03164505E-002
1.94311448E-002
7.42375695E-002
1.21658609E-002
3.49135016E-003
3.62429607E-002
6.77612416E-003
2.17129517E-002
4.26767942E-002
1.68541240E-003
3.78515203E-002
1.34242536E-002
4.19362883E-003
4.91759673E-002
3.12623768E-002
-2.01661604E-017
6.16642599E-002
4.74606369E-003
1.42885471E-002
9.04705022E-003
2.65642128E-002
3.30869566E-002
2.21643639E-002
1.99267907E-002
5.56679201E-003
2.60931961E-002
1.75704305E-002
1.38008510E-002
2.23095161E-002
2.60208521E-017
4.77248434E-002
2.27418032E-003
2.22145584E-002
2.49258327E-002
1.52564260E-002
1.04275370E-002
6.10924810E-003
1.30396073E-002
2.17607248E-002
2.82935816E-002
1.97801101E-002
6.64849980E-003
1.75640752E-017
1.63655125E-002
1.76657998E-002
1.31604618E-002
1.59639380E-002
9.99947383E-003
6.87891467E-003
2.90764260E-003
1.99493200E-017
2.34187669E-017
1.29054270E-002
7.14036000E-003
9.68831506E-003
1.18974877E-002
1.07423751E-002
7.11164653E-003
9.88432529E-003
8.04547093E-003
8.80817613E-003
5.03069808E-017
1.51788304E-017
3.26697396E-003
6.29339712E-003
4.25007252E-017
-6.59194921E-017
3.38998634E-003
5.13848793E-003
4.21610832E-003
2.60208521E-018
-3.20923843E-017
3.72965547E-017
-1.64798730E-017
5.46437895E-017
1.12757026E-017
4.11996826E-017
-1.21430643E-017
2.29850861E-017
-0.00000000E+000
