# vtk DataFile Version 1.0
ECM-CELL DIFFUSION-MECHANICS
ASCII

DATASET UNSTRUCTURED_GRID
POINTS    10383 float
1.50000000E+001 3.00000000E+001 0.00000000E+000
1.47500000E+001 3.00000000E+001 0.00000000E+000
1.48210000E+001 2.98210000E+001 0.00000000E+000
1.45000000E+001 3.00000000E+001 0.00000000E+000
1.46430000E+001 2.96430000E+001 0.00000000E+000
1.44570000E+001 2.98780000E+001 0.00000000E+000
1.45280000E+001 2.97000000E+001 0.00000000E+000
1.44130000E+001 2.97570000E+001 0.00000000E+000
1.42500000E+001 3.00000000E+001 0.00000000E+000
1.44640000E+001 2.94640000E+001 0.00000000E+000
1.42550000E+001 2.96920000E+001 0.00000000E+000
1.40480000E+001 2.98140000E+001 0.00000000E+000
1.41910000E+001 2.94560000E+001 0.00000000E+000
1.40970000E+001 2.96270000E+001 0.00000000E+000
1.40000000E+001 3.00000000E+001 0.00000000E+000
1.42860000E+001 2.92860000E+001 0.00000000E+000
1.38930000E+001 2.95420000E+001 0.00000000E+000
1.37500000E+001 3.00000000E+001 0.00000000E+000
1.41070000E+001 2.91070000E+001 0.00000000E+000
1.36890000E+001 2.94560000E+001 0.00000000E+000
1.35950000E+001 2.97280000E+001 0.00000000E+000
1.38090000E+001 2.91920000E+001 0.00000000E+000
1.35000000E+001 3.00000000E+001 0.00000000E+000
1.39290000E+001 2.89290000E+001 0.00000000E+000
1.34600000E+001 2.93630000E+001 0.00000000E+000
1.32500000E+001 3.00000000E+001 0.00000000E+000
1.37500000E+001 2.87500000E+001 0.00000000E+000
1.32310000E+001 2.92690000E+001 0.00000000E+000
1.31150000E+001 2.96350000E+001 0.00000000E+000
1.34010000E+001 2.89200000E+001 0.00000000E+000
1.30000000E+001 3.00000000E+001 0.00000000E+000
1.35710000E+001 2.85710000E+001 0.00000000E+000
1.29450000E+001 2.91470000E+001 0.00000000E+000
1.27500000E+001 3.00000000E+001 0.00000000E+000
1.33930000E+001 2.83930000E+001 0.00000000E+000
1.25800000E+001 2.95120000E+001 0.00000000E+000
1.29370000E+001 2.86190000E+001 0.00000000E+000
1.25000000E+001 3.00000000E+001 0.00000000E+000
1.32140000E+001 2.82140000E+001 0.00000000E+000
1.26590000E+001 2.90240000E+001 0.00000000E+000
1.22500000E+001 3.00000000E+001 0.00000000E+000
1.30360000E+001 2.80360000E+001 0.00000000E+000
1.23220000E+001 2.91480000E+001 0.00000000E+000
1.25010000E+001 2.86920000E+001 0.00000000E+000
1.20000000E+001 3.00000000E+001 0.00000000E+000
1.19920000E+001 2.96360000E+001 0.00000000E+000
1.28570000E+001 2.78570000E+001 0.00000000E+000
1.26000000E+001 2.81080000E+001 0.00000000E+000
1.19850000E+001 2.92710000E+001 0.00000000E+000
1.23430000E+001 2.83590000E+001 0.00000000E+000
1.17500000E+001 3.00000000E+001 0.00000000E+000
1.18990000E+001 2.89680000E+001 0.00000000E+000
1.20790000E+001 2.85120000E+001 0.00000000E+000
1.26790000E+001 2.76790000E+001 0.00000000E+000
1.17130000E+001 2.93290000E+001 0.00000000E+000
1.21950000E+001 2.81210000E+001 0.00000000E+000
1.18140000E+001 2.86650000E+001 0.00000000E+000
1.15000000E+001 3.00000000E+001 0.00000000E+000
1.25000000E+001 2.75000000E+001 0.00000000E+000
1.14710000E+001 2.96930000E+001 0.00000000E+000
1.22730000E+001 2.76910000E+001 0.00000000E+000
1.14410000E+001 2.93860000E+001 0.00000000E+000
1.20460000E+001 2.78820000E+001 0.00000000E+000
1.15700000E+001 2.87530000E+001 0.00000000E+000
1.17060000E+001 2.84240000E+001 0.00000000E+000
1.13840000E+001 2.91130000E+001 0.00000000E+000
1.18220000E+001 2.80320000E+001 0.00000000E+000
1.12500000E+001 3.00000000E+001 0.00000000E+000
1.23210000E+001 2.73210000E+001 0.00000000E+000
1.13260000E+001 2.88400000E+001 0.00000000E+000
1.11910000E+001 2.94170000E+001 0.00000000E+000
1.15980000E+001 2.81820000E+001 0.00000000E+000
1.18930000E+001 2.76850000E+001 0.00000000E+000
1.12550000E+001 2.86140000E+001 0.00000000E+000
1.13910000E+001 2.82850000E+001 0.00000000E+000
1.10000000E+001 3.00000000E+001 0.00000000E+000
1.09710000E+001 2.97240000E+001 0.00000000E+000
1.21430000E+001 2.71430000E+001 0.00000000E+000
1.10970000E+001 2.88900000E+001 0.00000000E+000
1.14770000E+001 2.79840000E+001 0.00000000E+000
1.19420000E+001 2.73150000E+001 0.00000000E+000
1.09410000E+001 2.94480000E+001 0.00000000E+000
1.17410000E+001 2.74870000E+001 0.00000000E+000
1.11840000E+001 2.83880000E+001 0.00000000E+000
1.09050000E+001 2.91940000E+001 0.00000000E+000
1.15490000E+001 2.76360000E+001 0.00000000E+000
1.07500000E+001 3.00000000E+001 0.00000000E+000
1.13560000E+001 2.77850000E+001 0.00000000E+000
1.08680000E+001 2.89400000E+001 0.00000000E+000
1.11000000E+001 2.82100000E+001 0.00000000E+000
1.19640000E+001 2.69640000E+001 0.00000000E+000
1.09930000E+001 2.84470000E+001 0.00000000E+000
1.06960000E+001 2.94640000E+001 0.00000000E+000
1.11870000E+001 2.79090000E+001 0.00000000E+000
1.15820000E+001 2.73060000E+001 0.00000000E+000
1.08350000E+001 2.87230000E+001 0.00000000E+000
1.10170000E+001 2.80320000E+001 0.00000000E+000
1.08020000E+001 2.85070000E+001 0.00000000E+000
1.12150000E+001 2.76150000E+001 0.00000000E+000
1.06350000E+001 2.89600000E+001 0.00000000E+000
1.05000000E+001 3.00000000E+001 0.00000000E+000
1.08960000E+001 2.81200000E+001 0.00000000E+000
1.07880000E+001 2.83570000E+001 0.00000000E+000
1.04760000E+001 2.97400000E+001 0.00000000E+000
1.17860000E+001 2.67860000E+001 0.00000000E+000
1.16050000E+001 2.69550000E+001 0.00000000E+000
1.04510000E+001 2.94790000E+001 0.00000000E+000
1.14230000E+001 2.71240000E+001 0.00000000E+000
1.07740000E+001 2.82080000E+001 0.00000000E+000
1.08860000E+001 2.78950000E+001 0.00000000E+000
1.12490000E+001 2.72840000E+001 0.00000000E+000
1.04260000E+001 2.92300000E+001 0.00000000E+000
1.05940000E+001 2.85060000E+001 0.00000000E+000
1.10740000E+001 2.74450000E+001 0.00000000E+000
1.04010000E+001 2.89800000E+001 0.00000000E+000
1.09140000E+001 2.76020000E+001 0.00000000E+000
1.06390000E+001 2.81470000E+001 0.00000000E+000
1.02500000E+001 3.00000000E+001 0.00000000E+000
1.03930000E+001 2.87430000E+001 0.00000000E+000
1.16070000E+001 2.66070000E+001 0.00000000E+000
1.07540000E+001 2.77590000E+001 0.00000000E+000
1.02040000E+001 2.94920000E+001 0.00000000E+000
1.12580000E+001 2.69500000E+001 0.00000000E+000
1.06290000E+001 2.79220000E+001 0.00000000E+000
1.03850000E+001 2.85050000E+001 0.00000000E+000
1.04450000E+001 2.82950000E+001 0.00000000E+000
1.05040000E+001 2.80860000E+001 0.00000000E+000
1.09150000E+001 2.72810000E+001 0.00000000E+000
1.01540000E+001 2.89930000E+001 0.00000000E+000
1.00000000E+001 3.00000000E+001 0.00000000E+000
1.05870000E+001 2.76180000E+001 0.00000000E+000
9.97800000E+000 2.97520000E+001 0.00000000E+000
1.14290000E+001 2.64290000E+001 0.00000000E+000
1.12610000E+001 2.66030000E+001 0.00000000E+000
1.10930000E+001 2.67760000E+001 0.00000000E+000
9.95600000E+000 2.95040000E+001 0.00000000E+000
1.09240000E+001 2.69470000E+001 0.00000000E+000
1.03000000E+001 2.79870000E+001 0.00000000E+000
1.01100000E+001 2.84800000E+001 0.00000000E+000
9.93140000E+000 2.92550000E+001 0.00000000E+000
1.07560000E+001 2.71170000E+001 0.00000000E+000
1.05870000E+001 2.72970000E+001 0.00000000E+000
9.90680000E+000 2.90060000E+001 0.00000000E+000
1.04190000E+001 2.74770000E+001 0.00000000E+000
9.75000000E+000 3.00000000E+001 0.00000000E+000
1.02570000E+001 2.76820000E+001 0.00000000E+000
9.87050000E+000 2.87300000E+001 0.00000000E+000
1.12500000E+001 2.62500000E+001 0.00000000E+000
1.09220000E+001 2.66010000E+001 0.00000000E+000
9.71100000E+000 2.95180000E+001 0.00000000E+000
1.00960000E+001 2.78880000E+001 0.00000000E+000
9.96490000E+000 2.81710000E+001 0.00000000E+000
1.05870000E+001 2.69490000E+001 0.00000000E+000
9.83430000E+000 2.84540000E+001 0.00000000E+000
9.68030000E+000 2.90460000E+001 0.00000000E+000
1.02440000E+001 2.73100000E+001 0.00000000E+000
9.50000000E+000 3.00000000E+001 0.00000000E+000
9.48300000E+000 2.97660000E+001 0.00000000E+000
9.64310000E+000 2.85900000E+001 0.00000000E+000
1.09110000E+001 2.62490000E+001 0.00000000E+000
1.07510000E+001 2.64260000E+001 0.00000000E+000
9.46600000E+000 2.95320000E+001 0.00000000E+000
1.10710000E+001 2.60710000E+001 0.00000000E+000
1.05850000E+001 2.66040000E+001 0.00000000E+000
9.46000000E+000 2.93090000E+001 0.00000000E+000
1.04190000E+001 2.67810000E+001 0.00000000E+000
9.45390000E+000 2.90860000E+001 0.00000000E+000
9.85260000E+000 2.77160000E+001 0.00000000E+000
1.02440000E+001 2.69620000E+001 0.00000000E+000
9.45290000E+000 2.89060000E+001 0.00000000E+000
9.58260000E+000 2.83100000E+001 0.00000000E+000
9.45200000E+000 2.87260000E+001 0.00000000E+000
1.00690000E+001 2.71440000E+001 0.00000000E+000
9.25000000E+000 3.00000000E+001 0.00000000E+000
9.22660000E+000 2.95340000E+001 0.00000000E+000
1.05780000E+001 2.62520000E+001 0.00000000E+000
9.83920000E+000 2.73440000E+001 0.00000000E+000
1.08930000E+001 2.58930000E+001 0.00000000E+000
1.02590000E+001 2.66100000E+001 0.00000000E+000
9.23190000E+000 2.90830000E+001 0.00000000E+000
9.27190000E+000 2.86810000E+001 0.00000000E+000
9.92880000E+000 2.69690000E+001 0.00000000E+000
9.60960000E+000 2.75440000E+001 0.00000000E+000
9.47030000E+000 2.78550000E+001 0.00000000E+000
9.33090000E+000 2.81660000E+001 0.00000000E+000
9.00000000E+000 3.00000000E+001 0.00000000E+000
9.21140000E+000 2.84000000E+001 0.00000000E+000
8.99360000E+000 2.97680000E+001 0.00000000E+000
8.98720000E+000 2.95360000E+001 0.00000000E+000
1.04050000E+001 2.60780000E+001 0.00000000E+000
8.99850000E+000 2.93070000E+001 0.00000000E+000
1.02530000E+001 2.62590000E+001 0.00000000E+000
1.05600000E+001 2.58960000E+001 0.00000000E+000
1.01000000E+001 2.64390000E+001 0.00000000E+000
9.05080000E+000 2.88570000E+001 0.00000000E+000
9.56750000E+000 2.73170000E+001 0.00000000E+000
9.00990000E+000 2.90790000E+001 0.00000000E+000
1.07140000E+001 2.57140000E+001 0.00000000E+000
9.09180000E+000 2.86350000E+001 0.00000000E+000
9.94440000E+000 2.66170000E+001 0.00000000E+000
9.78880000E+000 2.67940000E+001 0.00000000E+000
9.65710000E+000 2.69430000E+001 0.00000000E+000
9.52540000E+000 2.70910000E+001 0.00000000E+000
9.30830000E+000 2.74970000E+001 0.00000000E+000
9.06360000E+000 2.80970000E+001 0.00000000E+000
8.75000000E+000 3.00000000E+001 0.00000000E+000
[...]
POINT_DATA    10383
SCALARS Ux float
LOOKUP_TABLE default
1.00000000E+000
9.99973950E-001
1.00000000E+000
9.99899364E-001
1.00000000E+000
9.99885585E-001
9.99945788E-001
9.99883514E-001
9.99770641E-001
1.00000000E+000
9.99812822E-001
9.99644749E-001
9.99854488E-001
9.99723953E-001
9.99592562E-001
1.00000000E+000
9.99586219E-001
9.99363388E-001
1.00000000E+000
9.99419873E-001
9.99225927E-001
9.99688182E-001
9.99082801E-001
1.00000000E+000
9.99199210E-001
9.98752354E-001
1.00000000E+000
9.98942385E-001
9.98606756E-001
9.99433089E-001
9.98369426E-001
1.00000000E+000
9.98575139E-001
9.97937844E-001
1.00000000E+000
9.97711066E-001
9.99042585E-001
9.97453031E-001
1.00000000E+000
9.98153969E-001
9.96919834E-001
1.00000000E+000
9.97372919E-001
9.98151430E-001
9.96334370E-001
9.96368856E-001
1.00000000E+000
9.99110522E-001
9.96512707E-001
9.98216910E-001
9.95699383E-001
9.96513817E-001
9.97421332E-001
1.00000000E+000
9.95782269E-001
9.98228161E-001
9.96586420E-001
9.95013629E-001
1.00000000E+000
9.94968715E-001
9.99139121E-001
9.94995479E-001
9.98266254E-001
9.95835863E-001
9.96584011E-001
9.94993362E-001
9.97454257E-001
9.94278014E-001
1.00000000E+000
9.95045140E-001
9.94232403E-001
9.96620628E-001
9.98242049E-001
9.95060990E-001
9.95879784E-001
9.93492433E-001
9.93428294E-001
1.00000000E+000
9.94293156E-001
9.96584648E-001
9.99121674E-001
9.93420313E-001
9.98234940E-001
9.95113602E-001
9.93437669E-001
9.97409370E-001
9.92657502E-001
9.96569804E-001
9.93501613E-001
9.95091205E-001
1.00000000E+000
9.94428153E-001
9.92583316E-001
9.95836397E-001
9.98183054E-001
9.93591073E-001
9.95091569E-001
9.93715961E-001
9.96455904E-001
9.92680741E-001
9.91773382E-001
9.94554897E-001
9.93854331E-001
9.91712283E-001
1.00000000E+000
9.99072507E-001
9.91699818E-001
9.98139133E-001
9.94009736E-001
9.94880256E-001
9.97247619E-001
9.91732501E-001
9.92987003E-001
9.96348118E-001
9.91813745E-001
9.95505025E-001
9.93623528E-001
9.90840801E-001
9.91993973E-001
1.00000000E+000
9.94662924E-001
9.90762941E-001
9.98062277E-001
9.93939202E-001
9.92219744E-001
9.92707717E-001
9.93224284E-001
9.96172510E-001
9.90858681E-001
9.89859989E-001
9.94327966E-001
9.89794791E-001
1.00000000E+000
9.98990826E-001
9.97986759E-001
9.89775672E-001
9.96987255E-001
9.92608332E-001
9.91184606E-001
9.89792562E-001
9.95996059E-001
9.94982701E-001
9.89855837E-001
9.93979736E-001
9.88831934E-001
9.92961459E-001
9.89943339E-001
1.00000000E+000
9.97895078E-001
9.88753878E-001
9.91963487E-001
9.90996689E-001
9.95791914E-001
9.90087347E-001
9.88876273E-001
9.93649102E-001
9.87757156E-001
9.87702446E-001
9.89119587E-001
9.98896806E-001
9.97802958E-001
9.87687582E-001
1.00000000E+000
9.96691079E-001
9.87755654E-001
9.95588258E-001
9.87859808E-001
9.91250390E-001
9.94446856E-001
9.87988545E-001
9.89180847E-001
9.88141284E-001
9.93309893E-001
9.86636553E-001
9.86607196E-001
9.97699645E-001
9.91908384E-001
1.00000000E+000
9.95421419E-001
9.86855869E-001
9.87366011E-001
9.93132556E-001
9.90507215E-001
9.89335190E-001
9.88234415E-001
9.85471140E-001
9.87383605E-001
9.85459519E-001
9.85485638E-001
9.97594446E-001
9.85632491E-001
9.96420793E-001
9.98794197E-001
9.95258155E-001
9.86173834E-001
9.90766382E-001
9.85816530E-001
1.00000000E+000
9.86567682E-001
9.94102452E-001
9.92961172E-001
9.92007123E-001
9.91064272E-001
9.89212414E-001
9.87066288E-001
9.84261845E-001
9.84316629E-001
9.97472864E-001
9.95015578E-001
9.84657835E-001
9.85448826E-001
1.00000000E+000
9.92562516E-001
9.90430614E-001
9.83010091E-001
9.83040311E-001
9.86807224E-001
9.85841174E-001
9.87840208E-001
9.83107472E-001
9.85038168E-001
9.83264053E-001
9.96052051E-001
9.94768823E-001
9.97350849E-001
9.93447981E-001
9.83851821E-001
9.83458343E-001
9.88776983E-001
9.98668130E-001
9.84287533E-001
9.92149012E-001
9.90943234E-001
1.00000000E+000
9.89771930E-001
9.81717039E-001
9.81806333E-001
9.94468519E-001
9.97209693E-001
9.82154877E-001
9.84452491E-001
9.86512312E-001
9.82973034E-001
9.91598805E-001
1.00000000E+000
9.88803042E-001
9.80384278E-001
9.80406701E-001
9.94155719E-001
9.95596995E-001
9.80464734E-001
9.80617810E-001
9.97064304E-001
9.92574443E-001
9.80809200E-001
9.98525114E-001
9.81187549E-001
9.91024925E-001
9.81611986E-001
9.82278654E-001
1.00000000E+000
9.83004174E-001
9.84021204E-001
9.89378882E-001
9.85116899E-001
9.86408524E-001
9.87781324E-001
9.79013301E-001
9.79093034E-001
9.93853599E-001
9.96926103E-001
9.79391360E-001
9.90451606E-001
1.00000000E+000
9.80165620E-001
9.81457577E-001
9.83541766E-001
9.86532596E-001
9.77606017E-001
9.77628689E-001
9.77684649E-001
9.93537568E-001
9.95144849E-001
9.96777563E-001
9.77791480E-001
9.98375902E-001
9.91678572E-001
9.77933998E-001
9.78280388E-001
1.00000000E+000
9.78673150E-001
9.89845872E-001
9.79231621E-001
9.79851844E-001
9.80819055E-001
9.87502599E-001
9.81883392E-001
9.83470707E-001
9.76164178E-001
9.93327158E-001
9.76223085E-001
9.96654344E-001
9.85200518E-001
9.76450268E-001
1.00000000E+000
9.89646900E-001
9.77091250E-001
9.78088878E-001
9.74689983E-001
9.74694321E-001
9.93106498E-001
9.94803908E-001
9.74728065E-001
9.85358990E-001
9.96525026E-001
9.74814680E-001
9.91269118E-001
9.98249940E-001
9.79801452E-001
9.74931922E-001
9.83125228E-001
1.00000000E+000
9.75179516E-001
9.89449624E-001
9.75467949E-001
9.75843447E-001
9.87500836E-001
9.76272061E-001
9.73185425E-001
9.92876553E-001
9.85569061E-001
9.73220554E-001
9.96391323E-001
9.76901130E-001
9.73394983E-001
9.89212793E-001
1.00000000E+000
9.80967950E-001
9.79242201E-001
9.73807536E-001
9.77623462E-001
9.83937429E-001
9.81602472E-001
9.85447844E-001
9.74414656E-001
9.92632444E-001
9.71653078E-001
9.94423821E-001
9.71656289E-001
9.71684651E-001
9.90789272E-001
9.96249552E-001
9.82288594E-001
9.71743151E-001
9.79868132E-001
9.88971547E-001
9.98111583E-001
9.71828672E-001
1.00000000E+000
9.71955079E-001
9.87141453E-001
9.76977571E-001
9.81293152E-001
9.72112629E-001
9.75371902E-001
9.85334550E-001
9.82182706E-001
9.72298779E-001
9.78732784E-001
9.79497758E-001
9.80284745E-001
9.92315685E-001
9.70095202E-001
9.83700132E-001
9.72519210E-001
9.70117404E-001
9.96081656E-001
9.77508770E-001
9.88566029E-001
9.70223658E-001
9.76316577E-001
9.72786300E-001
9.82081136E-001
1.00000000E+000
9.79846563E-001
9.78057250E-001
9.84871721E-001
9.70431172E-001
9.80733719E-001
9.73096418E-001
9.76048030E-001
9.79399563E-001
9.91974889E-001
9.90041366E-001
9.93913859E-001
9.78370448E-001
9.74737721E-001
9.68514511E-001
9.68511589E-001
9.70722709E-001
9.88139047E-001
9.68527726E-001
9.95897495E-001
9.77364123E-001
9.81489872E-001
9.68551306E-001
9.76562066E-001
9.73111848E-001
9.97930330E-001
9.86245878E-001
9.75776374E-001
9.68594874E-001
1.00000000E+000
9.84388192E-001
9.68648151E-001
9.78652553E-001
9.68723091E-001
9.82613006E-001
9.73148810E-001
9.71158040E-001
9.76394385E-001
9.74720167E-001
9.68800083E-001
9.80873791E-001
9.91561708E-001
9.66913645E-001
9.73388299E-001
9.87567234E-001
9.79357493E-001
9.66914707E-001
9.68899945E-001
9.95681056E-001
9.77878103E-001
9.66955182E-001
9.83683433E-001
9.76614271E-001
9.73647998E-001
9.69034379E-001
1.00000000E+000
9.74501647E-001
9.75394579E-001
9.71367510E-001
9.67024799E-001
9.69197236E-001
9.80032811E-001
9.91112060E-001
9.89009356E-001
9.86952260E-001
9.93248859E-001
9.65295515E-001
9.65282408E-001
9.69365223E-001
9.65283424E-001
9.67130900E-001
9.95447742E-001
9.84924525E-001
9.76812023E-001
9.65283435E-001
9.72067949E-001
9.97697317E-001
9.82940490E-001
9.65297960E-001
9.74109355E-001
1.00000000E+000
9.81017961E-001
9.65295578E-001
9.69562739E-001
9.79145923E-001
9.65307490E-001
9.67327114E-001
9.77391829E-001
9.69983695E-001
9.65317850E-001
9.90603301E-001
9.75700469E-001
9.86234799E-001
9.63662977E-001
9.74203991E-001
9.63651832E-001
9.65342496E-001
9.70446067E-001
9.71577506E-001
9.95184656E-001
9.72774944E-001
9.82047627E-001
9.63625520E-001
9.65381437E-001
1.00000000E+000
9.67583013E-001
9.78095164E-001
9.63590609E-001
9.65437270E-001
9.74454181E-001
9.90048768E-001
9.87716929E-001
9.85453888E-001
9.62019076E-001
9.92434513E-001
9.62010644E-001
9.62009679E-001
9.83238844E-001
9.63567588E-001
9.65495453E-001
9.94891428E-001
9.71219167E-001
9.61971456E-001
9.81090102E-001
9.97420751E-001
9.61940269E-001
9.68208380E-001
9.78995535E-001
1.00000000E+000
9.61897996E-001
9.65573039E-001
9.76975770E-001
9.61862737E-001
9.75014599E-001
9.63547206E-001
9.73138174E-001
9.61818152E-001
9.89441610E-001
9.71317716E-001
9.60366899E-001
9.84612479E-001
9.65714815E-001
9.60342497E-001
9.61780814E-001
9.94569956E-001
9.69587869E-001
9.80068148E-001
9.60250340E-001
9.67679516E-001
9.61711038E-001
1.00000000E+000
9.63486986E-001
9.75801665E-001
9.65889542E-001
9.60134664E-001
9.61646618E-001
9.71843199E-001
9.58709622E-001
9.88771258E-001
9.86186814E-001
9.58689311E-001
9.83696423E-001
9.59998273E-001
9.91449756E-001
9.61520613E-001
9.58670142E-001
9.81280364E-001
9.94215738E-001
9.58611795E-001
9.68190772E-001
9.78960464E-001
9.97072133E-001
9.58554524E-001
9.76701254E-001
1.00000000E+000
9.58477694E-001
9.74540148E-001
9.61396101E-001
9.63322110E-001
9.58400974E-001
9.72453334E-001
9.59779608E-001
9.64512664E-001
9.58307433E-001
9.70462966E-001
9.57050413E-001
9.61098058E-001
9.68536238E-001
9.58212206E-001
9.88078861E-001
9.57000538E-001
9.82736458E-001
9.93844155E-001
9.77773159E-001
9.66706889E-001
9.56877905E-001
9.58063415E-001
1.00000000E+000
9.59411483E-001
9.73203001E-001
9.64827064E-001
9.60787077E-001
9.56687016E-001
9.57910676E-001
9.69041547E-001
9.63035787E-001
9.55392511E-001
9.57675855E-001
9.55364414E-001
9.56435507E-001
9.55332366E-001
9.87310282E-001
9.84431295E-001
9.81671226E-001
9.90316468E-001
9.55269539E-001
9.79009370E-001
9.93424951E-001
9.65288371E-001
9.55202143E-001
9.76476491E-001
9.96674775E-001
9.59975894E-001
9.74049838E-001
9.57430898E-001
9.55091510E-001
1.00000000E+000
9.58707035E-001
9.61046993E-001
9.71747573E-001
9.54974277E-001
9.56065939E-001
9.69572977E-001
9.54822240E-001
9.67510421E-001
9.61726691E-001
9.57048517E-001
9.53739180E-001
9.54661515E-001
9.65587864E-001
9.53675507E-001
9.59117868E-001
9.86474940E-001
9.80518880E-001
9.92994260E-001
9.53530385E-001
9.63769027E-001
9.54449936E-001
9.75090692E-001
9.55528042E-001
9.56647222E-001
1.00000000E+000
9.62008055E-001
9.53267723E-001
9.70207691E-001
9.54225624E-001
9.57282339E-001
9.60332301E-001
9.58121687E-001
9.65900461E-001
9.56079618E-001
9.53938432E-001
9.52093658E-001
9.52895559E-001
9.52065885E-001
9.52027195E-001
9.51952796E-001
9.85521199E-001
9.82286918E-001
9.88929494E-001
9.79215475E-001
9.58669220E-001
9.54745271E-001
9.51866859E-001
9.62183009E-001
9.92486603E-001
9.53634615E-001
9.76301455E-001
9.96197554E-001
9.73551083E-001
9.51724827E-001
1.00000000E+000
9.55481626E-001
9.70954766E-001
9.51568885E-001
9.52411967E-001
9.68515080E-001
9.57066622E-001
9.53259671E-001
9.58872097E-001
9.51361927E-001
9.66263147E-001
9.64152047E-001
9.50459160E-001
9.51139513E-001
9.50390563E-001
9.54774368E-001
9.62256158E-001
9.52862157E-001
9.55527911E-001
9.51782143E-001
9.50216973E-001
9.60479999E-001
9.84486778E-001
9.50883943E-001
9.53650984E-001
9.77828368E-001
9.91926178E-001
9.55890529E-001
9.58853865E-001
9.71882046E-001
1.00000000E+000
9.50609876E-001
9.49882244E-001
9.52366306E-001
9.57319605E-001
9.54026930E-001
9.66681805E-001
9.50288094E-001
9.55955298E-001
9.62245526E-001
9.48838903E-001
9.49411008E-001
9.50990207E-001
9.48812289E-001
9.51840030E-001
9.48768895E-001
9.48683829E-001
9.53389024E-001
9.54654691E-001
9.49944848E-001
9.48581320E-001
9.58581168E-001
9.83274926E-001
9.87159806E-001
9.79636457E-001
9.52359426E-001
9.91258829E-001
9.76226439E-001
9.53672751E-001
9.48405812E-001
9.95560906E-001
9.72999716E-001
1.00000000E+000
9.69997048E-001
9.51291629E-001
9.48813629E-001
9.49554053E-001
9.48209787E-001
9.55516580E-001
9.52723060E-001
9.67225482E-001
9.47965830E-001
9.64650992E-001
9.50038724E-001
9.62320600E-001
9.49136438E-001
9.52993529E-001
9.47698913E-001
9.47236096E-001
9.50708718E-001
9.60161740E-001
9.47163354E-001
9.58278635E-001
9.48096569E-001
9.46951279E-001
9.47379428E-001
9.56536842E-001
9.48712922E-001
9.51053499E-001
9.81943407E-001
9.90512405E-001
9.55016709E-001
9.74442864E-001
1.00000000E+000
9.47035144E-001
9.50061488E-001
9.53601548E-001
9.46543009E-001
9.67904215E-001
9.48260666E-001
9.52394132E-001
9.48985391E-001
9.46666271E-001
9.51262879E-001
9.47281251E-001
9.62318393E-001
9.50286780E-001
9.45979351E-001
9.45653721E-001
9.45628248E-001
9.47789468E-001
9.45579219E-001
9.49367589E-001
9.46268196E-001
9.57720130E-001
9.45473010E-001
9.45341406E-001
9.54163361E-001
9.45133593E-001
9.84794260E-001
9.80329174E-001
9.89594435E-001
9.45874403E-001
9.76164858E-001
9.47287657E-001
9.94700890E-001
9.72344769E-001
1.00000000E+000
9.45275111E-001
9.46438554E-001
9.44898885E-001
9.51316940E-001
9.68774092E-001
9.47750330E-001
9.65506502E-001
9.45448538E-001
9.49202058E-001
9.44605663E-001
9.62475517E-001
9.46749706E-001
9.47666211E-001
9.59714505E-001
9.44283173E-001
9.44094985E-001
9.45059152E-001
9.44011080E-001
9.57273936E-001
9.44476602E-001
9.45555901E-001
9.46180834E-001
9.55051416E-001
9.43927713E-001
9.43745400E-001
9.53254463E-001
9.44640979E-001
9.51613855E-001
9.88438624E-001
9.78384094E-001
9.50198835E-001
9.43539733E-001
1.00000000E+000
9.69880200E-001
9.43267476E-001
9.45528374E-001
9.48896405E-001
9.47937108E-001
9.44258941E-001
9.43634471E-001
9.47054486E-001
9.46454699E-001
9.45892426E-001
9.43141147E-001
9.62699335E-001
9.45363166E-001
9.44637804E-001
9.43846972E-001
9.44853170E-001
9.42620204E-001
9.42562666E-001
9.42530991E-001
9.42709611E-001
9.42469976E-001
9.56675611E-001
9.42339226E-001
9.43495447E-001
9.42831844E-001
9.42177257E-001
9.42297659E-001
9.51880597E-001
9.41938628E-001
9.86907402E-001
9.81131136E-001
9.43646123E-001
9.93242349E-001
9.75925777E-001
9.43118359E-001
9.41811425E-001
9.48679801E-001
1.00000000E+000
9.71163136E-001
9.43891018E-001
9.41666646E-001
9.41849835E-001
9.66929802E-001
9.44594752E-001
9.42790056E-001
9.62983486E-001
9.42098013E-001
9.41344958E-001
9.45754928E-001
9.41465834E-001
9.59469889E-001
9.42444675E-001
9.40987099E-001
9.41059779E-001
9.40932559E-001
9.56200937E-001
9.40959588E-001
9.41052675E-001
9.42169724E-001
9.41517615E-001
9.53273927E-001
9.40569808E-001
9.40638913E-001
9.40725267E-001
9.41875943E-001
9.50713501E-001
9.84763480E-001
9.72921034E-001
9.41145772E-001
9.41977614E-001
9.40115435E-001
1.00000000E+000
9.40372266E-001
9.40039856E-001
9.48421252E-001
9.46907858E-001
9.40091749E-001
9.45558474E-001
9.42083903E-001
9.63537544E-001
9.40162009E-001
9.39671131E-001
9.43937494E-001
9.42264308E-001
9.39934536E-001
9.39898762E-001
9.55892474E-001
9.39589000E-001
9.39365503E-001
9.42463411E-001
9.39552819E-001
9.39856507E-001
9.39188733E-001
9.39196828E-001
9.39481665E-001
9.39326269E-001
9.39134405E-001
9.38747508E-001
9.39417229E-001
9.49419653E-001
9.81481844E-001
9.38863787E-001
9.74642062E-001
9.38505183E-001
9.69084515E-001
9.90470822E-001
9.38454453E-001
9.38266965E-001
1.00000000E+000
9.63890820E-001
9.42687594E-001
9.38553679E-001
9.38467087E-001
9.39292196E-001
9.59458133E-001
9.38119763E-001
9.40845079E-001
9.37839234E-001
9.38188672E-001
9.55357875E-001
9.43957598E-001
9.37376051E-001
9.38153010E-001
9.37780963E-001
9.37482263E-001
9.39220645E-001
9.51788881E-001
9.38030121E-001
9.37038379E-001
9.37331270E-001
9.37659855E-001
9.37029697E-001
9.48244091E-001
9.36666125E-001
9.77188311E-001
9.64374022E-001
9.39107476E-001
9.36658497E-001
9.36498155E-001
9.39381741E-001
9.36795085E-001
9.36308705E-001
9.36474135E-001
9.36836326E-001
9.39672374E-001
1.00000000E+000
9.45123118E-001
9.37068576E-001
9.55213611E-001
9.36532538E-001
9.36349783E-001
9.36300939E-001
9.39445805E-001
9.41944916E-001
9.35484674E-001
9.36754408E-001
9.37055530E-001
9.35817408E-001
9.36705747E-001
9.36251175E-001
9.47646202E-001
9.36048694E-001
9.36616688E-001
9.36441613E-001
9.35296641E-001
9.39165847E-001
9.68963379E-001
9.63245297E-001
9.36224580E-001
9.58941693E-001
9.36940240E-001
9.34635672E-001
9.35559765E-001
9.79894825E-001
9.54170139E-001
9.35946131E-001
9.34729949E-001
9.35273599E-001
1.00000000E+000
9.50190531E-001
9.33949204E-001
9.35624544E-001
9.33840345E-001
9.35023941E-001
9.41099554E-001
9.34208876E-001
9.46343210E-001
9.35216930E-001
9.33437071E-001
9.34641826E-001
9.33642101E-001
9.35395604E-001
9.34188719E-001
9.34764345E-001
9.43000573E-001
9.33137602E-001
9.61302175E-001
9.34223512E-001
9.35239717E-001
9.52656467E-001
9.33167729E-001
9.35117303E-001
9.34283414E-001
9.58612358E-001
9.34835171E-001
9.32653660E-001
9.39614641E-001
9.35304703E-001
9.45204347E-001
9.32387201E-001
9.64312676E-001
9.32166230E-001
9.33022683E-001
9.33756399E-001
9.32838459E-001
9.32320666E-001
9.34212774E-001
9.31633868E-001
9.36618286E-001
9.33209146E-001
9.31187940E-001
9.50067622E-001
9.48163692E-001
9.46200697E-001
9.30697033E-001
9.30550923E-001
9.38386836E-001
9.31815566E-001
9.35725679E-001
9.34078875E-001
9.30389771E-001
9.30332446E-001
9.32611961E-001
9.34014898E-001
9.33336738E-001
9.30267548E-001
9.31312436E-001
9.33906205E-001
9.50013068E-001
9.42699024E-001
9.30454552E-001
9.33631830E-001
9.30031059E-001
9.33720910E-001
9.30108388E-001
9.32017253E-001
9.29774784E-001
9.33490499E-001
9.39587683E-001
9.44797634E-001
9.44368917E-001
9.30605596E-001
9.33193568E-001
9.31370851E-001
9.32290495E-001
9.30970456E-001
9.40434672E-001
9.36295823E-001
9.32849294E-001
9.32303512E-001
9.28879055E-001
9.33797199E-001
9.23004422E-001
9.28565284E-001
9.30737680E-001
9.32428911E-001
9.29151117E-001
9.33378085E-001
9.37795067E-001
9.39053831E-001
9.28464955E-001
9.37713721E-001
9.32806585E-001
9.30053594E-001
9.31103942E-001
9.31960101E-001
9.34456311E-001
9.36763269E-001
9.32634225E-001
9.27273157E-001
9.28044370E-001
9.27276412E-001
9.29369723E-001
9.35259053E-001
9.34571734E-001
9.30332846E-001
9.31444757E-001
9.26579274E-001
9.32211919E-001
9.26600283E-001
9.26836374E-001
9.28631916E-001
9.12360593E-001
9.27133607E-001
9.29795297E-001
9.30877794E-001
9.31653761E-001
9.26805731E-001
9.31774044E-001
9.31546169E-001
9.27617069E-001
9.28533913E-001
9.27730875E-001
9.25378910E-001
9.30292084E-001
9.24901442E-001
9.28978802E-001
9.29439841E-001
9.31580600E-001
9.28369096E-001
9.29652818E-001
9.27676941E-001
9.31519010E-001
9.30633588E-001
9.24035864E-001
9.26758131E-001
9.22662142E-001
9.31409184E-001
9.17181589E-001
9.10413111E-001
9.24819580E-001
9.24845457E-001
9.24311840E-001
9.31219797E-001
9.02147228E-001
9.26046494E-001
9.23854901E-001
9.28995419E-001
9.24254824E-001
9.23258145E-001
9.30981840E-001
9.23355902E-001
9.24207184E-001
9.30662451E-001
9.23917820E-001
9.26787661E-001
9.28282072E-001
9.29527515E-001
9.25297368E-001
9.22963820E-001
9.23707751E-001
9.23376719E-001
9.22308918E-001
9.30292345E-001
9.18383213E-001
9.21632398E-001
9.23923707E-001
9.08433988E-001
9.27549852E-001
9.21316643E-001
9.29852481E-001
9.21016803E-001
8.93055657E-001
9.30402991E-001
9.28287208E-001
9.20593016E-001
9.26758501E-001
9.23691742E-001
9.29361256E-001
9.30227978E-001
9.21659728E-001
9.18002473E-001
9.19869207E-001
9.24809124E-001
9.20500438E-001
9.15104458E-001
9.18268021E-001
9.28825255E-001
9.25925764E-001
9.29787444E-001
9.10726721E-001
9.18334778E-001
9.20237746E-001
9.06057680E-001
9.19300758E-001
9.18045229E-001
8.99711451E-001
9.26864509E-001
9.21331050E-001
9.28234789E-001
9.17752626E-001
8.92637006E-001
9.25029613E-001
9.18139940E-001
9.17643982E-001
9.29082020E-001
8.84856251E-001
9.15579374E-001
9.11823701E-001
9.27633813E-001
9.24034451E-001
9.15375108E-001
9.03354231E-001
9.29275658E-001
9.26979456E-001
9.12622652E-001
9.17444960E-001
9.25270749E-001
9.29212064E-001
9.16160585E-001
9.28154478E-001
9.19052554E-001
9.21896166E-001
9.29097188E-001
9.13048796E-001
8.91571087E-001
9.28897677E-001
9.22972276E-001
9.09330215E-001
9.18197120E-001
9.26276731E-001
9.13279907E-001
9.28646493E-001
9.18736128E-001
9.05441483E-001
9.17287874E-001
8.77193511E-001
9.14799037E-001
9.28312769E-001
9.25512106E-001
9.27023930E-001