# vtk DataFile Version 1.0
ECM-CELL DIFFUSION-MECHANICS
ASCII

DATASET UNSTRUCTURED_GRID
POINTS    13139 float
1.50000000E+001 3.00000000E+001 0.00000000E+000
1.48250000E+001 2.98250000E+001 0.00000000E+000
1.47500000E+001 3.00000000E+001 0.00000000E+000
1.45880000E+001 2.98280000E+001 0.00000000E+000
1.46490000E+001 2.96490000E+001 0.00000000E+000
1.45000000E+001 3.00000000E+001 0.00000000E+000
1.44020000E+001 2.97640000E+001 0.00000000E+000
1.44740000E+001 2.94740000E+001 0.00000000E+000
1.42500000E+001 3.00000000E+001 0.00000000E+000
1.42350000E+001 2.95490000E+001 0.00000000E+000
1.41110000E+001 2.98040000E+001 0.00000000E+000
1.42980000E+001 2.92980000E+001 0.00000000E+000
1.40000000E+001 3.00000000E+001 0.00000000E+000
1.41280000E+001 2.93720000E+001 0.00000000E+000
1.39960000E+001 2.95830000E+001 0.00000000E+000
1.38670000E+001 2.97950000E+001 0.00000000E+000
1.41230000E+001 2.91230000E+001 0.00000000E+000
1.37500000E+001 3.00000000E+001 0.00000000E+000
1.37480000E+001 2.95760000E+001 0.00000000E+000
1.38990000E+001 2.92670000E+001 0.00000000E+000
1.36200000E+001 2.97900000E+001 0.00000000E+000
1.39470000E+001 2.89470000E+001 0.00000000E+000
1.35000000E+001 3.00000000E+001 0.00000000E+000
1.36200000E+001 2.93040000E+001 0.00000000E+000
1.34990000E+001 2.95720000E+001 0.00000000E+000
1.37070000E+001 2.90130000E+001 0.00000000E+000
1.33720000E+001 2.97870000E+001 0.00000000E+000
1.37720000E+001 2.87720000E+001 0.00000000E+000
1.33990000E+001 2.93170000E+001 0.00000000E+000
1.32500000E+001 3.00000000E+001 0.00000000E+000
1.34670000E+001 2.90790000E+001 0.00000000E+000
1.32500000E+001 2.95700000E+001 0.00000000E+000
1.35310000E+001 2.88370000E+001 0.00000000E+000
1.31210000E+001 2.97730000E+001 0.00000000E+000
1.31700000E+001 2.93440000E+001 0.00000000E+000
1.32330000E+001 2.91340000E+001 0.00000000E+000
1.35960000E+001 2.85960000E+001 0.00000000E+000
1.30000000E+001 3.00000000E+001 0.00000000E+000
1.32900000E+001 2.89030000E+001 0.00000000E+000
1.29780000E+001 2.94970000E+001 0.00000000E+000
1.33560000E+001 2.86620000E+001 0.00000000E+000
1.28740000E+001 2.97850000E+001 0.00000000E+000
1.29930000E+001 2.92000000E+001 0.00000000E+000
1.30530000E+001 2.89620000E+001 0.00000000E+000
1.34210000E+001 2.84210000E+001 0.00000000E+000
1.27500000E+001 3.00000000E+001 0.00000000E+000
1.31140000E+001 2.87260000E+001 0.00000000E+000
1.26950000E+001 2.95070000E+001 0.00000000E+000
1.27530000E+001 2.92640000E+001 0.00000000E+000
1.31800000E+001 2.84860000E+001 0.00000000E+000
1.26250000E+001 2.97840000E+001 0.00000000E+000
1.28120000E+001 2.90300000E+001 0.00000000E+000
1.28720000E+001 2.87890000E+001 0.00000000E+000
1.32460000E+001 2.82460000E+001 0.00000000E+000
1.25000000E+001 3.00000000E+001 0.00000000E+000
1.29380000E+001 2.85480000E+001 0.00000000E+000
1.25140000E+001 2.93350000E+001 0.00000000E+000
1.24510000E+001 2.95770000E+001 0.00000000E+000
1.25710000E+001 2.90940000E+001 0.00000000E+000
1.24070000E+001 2.98010000E+001 0.00000000E+000
1.30050000E+001 2.83110000E+001 0.00000000E+000
1.26380000E+001 2.88530000E+001 0.00000000E+000
1.26970000E+001 2.86120000E+001 0.00000000E+000
1.30700000E+001 2.80700000E+001 0.00000000E+000
1.22500000E+001 3.00000000E+001 0.00000000E+000
1.27630000E+001 2.83710000E+001 0.00000000E+000
1.23390000E+001 2.91600000E+001 0.00000000E+000
1.22730000E+001 2.94000000E+001 0.00000000E+000
1.23970000E+001 2.89180000E+001 0.00000000E+000
1.21840000E+001 2.97180000E+001 0.00000000E+000
1.24630000E+001 2.86770000E+001 0.00000000E+000
1.28290000E+001 2.81360000E+001 0.00000000E+000
1.25220000E+001 2.84360000E+001 0.00000000E+000
1.28950000E+001 2.78950000E+001 0.00000000E+000
1.20000000E+001 3.00000000E+001 0.00000000E+000
1.20980000E+001 2.92270000E+001 0.00000000E+000
1.25880000E+001 2.81950000E+001 0.00000000E+000
1.20330000E+001 2.94670000E+001 0.00000000E+000
1.21620000E+001 2.89850000E+001 0.00000000E+000
1.22230000E+001 2.87430000E+001 0.00000000E+000
1.22870000E+001 2.85020000E+001 0.00000000E+000
1.26540000E+001 2.79600000E+001 0.00000000E+000
1.18750000E+001 2.97830000E+001 0.00000000E+000
1.23470000E+001 2.82600000E+001 0.00000000E+000
1.18570000E+001 2.92910000E+001 0.00000000E+000
1.19200000E+001 2.90510000E+001 0.00000000E+000
1.27190000E+001 2.77190000E+001 0.00000000E+000
1.19830000E+001 2.88100000E+001 0.00000000E+000
1.17500000E+001 3.00000000E+001 0.00000000E+000
1.24120000E+001 2.80190000E+001 0.00000000E+000
1.17500000E+001 2.95670000E+001 0.00000000E+000
1.20490000E+001 2.85700000E+001 0.00000000E+000
1.21080000E+001 2.83280000E+001 0.00000000E+000
1.24780000E+001 2.77850000E+001 0.00000000E+000
1.16250000E+001 2.97830000E+001 0.00000000E+000
1.21750000E+001 2.80890000E+001 0.00000000E+000
1.18070000E+001 2.86330000E+001 0.00000000E+000
1.25440000E+001 2.75440000E+001 0.00000000E+000
1.17000000E+001 2.89070000E+001 0.00000000E+000
1.16270000E+001 2.91460000E+001 0.00000000E+000
1.22420000E+001 2.78510000E+001 0.00000000E+000
1.15000000E+001 3.00000000E+001 0.00000000E+000
1.15520000E+001 2.93850000E+001 0.00000000E+000
1.18700000E+001 2.83960000E+001 0.00000000E+000
1.15000000E+001 2.95670000E+001 0.00000000E+000
1.19360000E+001 2.81570000E+001 0.00000000E+000
1.23030000E+001 2.76090000E+001 0.00000000E+000
1.20010000E+001 2.79170000E+001 0.00000000E+000
1.15670000E+001 2.87020000E+001 0.00000000E+000
1.13260000E+001 2.97210000E+001 0.00000000E+000
1.14570000E+001 2.89640000E+001 0.00000000E+000
1.13840000E+001 2.92000000E+001 0.00000000E+000
1.16280000E+001 2.84600000E+001 0.00000000E+000
1.13210000E+001 2.94420000E+001 0.00000000E+000
1.23680000E+001 2.73680000E+001 0.00000000E+000
1.20640000E+001 2.76750000E+001 0.00000000E+000
1.12500000E+001 3.00000000E+001 0.00000000E+000
1.16940000E+001 2.82190000E+001 0.00000000E+000
1.17590000E+001 2.79820000E+001 0.00000000E+000
1.21280000E+001 2.74340000E+001 0.00000000E+000
1.18240000E+001 2.77400000E+001 0.00000000E+000
1.12160000E+001 2.90290000E+001 0.00000000E+000
1.12790000E+001 2.87880000E+001 0.00000000E+000
1.13540000E+001 2.85500000E+001 0.00000000E+000
1.11430000E+001 2.92670000E+001 0.00000000E+000
1.14530000E+001 2.82840000E+001 0.00000000E+000
1.10800000E+001 2.95060000E+001 0.00000000E+000
1.21930000E+001 2.71930000E+001 0.00000000E+000
1.18870000E+001 2.74990000E+001 0.00000000E+000
1.15180000E+001 2.80430000E+001 0.00000000E+000
1.10000000E+001 3.00000000E+001 0.00000000E+000
1.10080000E+001 2.97450000E+001 0.00000000E+000
1.15830000E+001 2.78050000E+001 0.00000000E+000
1.19520000E+001 2.72580000E+001 0.00000000E+000
1.10400000E+001 2.88560000E+001 0.00000000E+000
1.09750000E+001 2.90830000E+001 0.00000000E+000
1.11110000E+001 2.86080000E+001 0.00000000E+000
1.09120000E+001 2.93250000E+001 0.00000000E+000
1.16480000E+001 2.75640000E+001 0.00000000E+000
1.11780000E+001 2.83820000E+001 0.00000000E+000
1.12770000E+001 2.81090000E+001 0.00000000E+000
1.08370000E+001 2.95630000E+001 0.00000000E+000
1.20180000E+001 2.70180000E+001 0.00000000E+000
1.13410000E+001 2.78670000E+001 0.00000000E+000
1.17110000E+001 2.73220000E+001 0.00000000E+000
1.07590000E+001 2.98000000E+001 0.00000000E+000
1.07500000E+001 3.00000000E+001 0.00000000E+000
1.14070000E+001 2.76300000E+001 0.00000000E+000
1.08700000E+001 2.86730000E+001 0.00000000E+000
1.07960000E+001 2.89110000E+001 0.00000000E+000
1.17770000E+001 2.70830000E+001 0.00000000E+000
1.07350000E+001 2.91490000E+001 0.00000000E+000
1.09340000E+001 2.84320000E+001 0.00000000E+000
1.06720000E+001 2.93770000E+001 0.00000000E+000
1.10110000E+001 2.81960000E+001 0.00000000E+000
1.14710000E+001 2.73880000E+001 0.00000000E+000
1.11000000E+001 2.79320000E+001 0.00000000E+000
1.05930000E+001 2.96140000E+001 0.00000000E+000
1.18420000E+001 2.68420000E+001 0.00000000E+000
1.11650000E+001 2.76910000E+001 0.00000000E+000
1.15390000E+001 2.71490000E+001 0.00000000E+000
1.05000000E+001 3.00000000E+001 0.00000000E+000
1.05690000E+001 2.89670000E+001 0.00000000E+000
1.06300000E+001 2.87250000E+001 0.00000000E+000
1.12290000E+001 2.74490000E+001 0.00000000E+000
1.06940000E+001 2.85010000E+001 0.00000000E+000
1.04920000E+001 2.92040000E+001 0.00000000E+000
1.07690000E+001 2.82510000E+001 0.00000000E+000
1.16010000E+001 2.69070000E+001 0.00000000E+000
1.04320000E+001 2.94460000E+001 0.00000000E+000
1.08420000E+001 2.80120000E+001 0.00000000E+000
1.12970000E+001 2.72090000E+001 0.00000000E+000
1.09240000E+001 2.77550000E+001 0.00000000E+000
1.03460000E+001 2.97150000E+001 0.00000000E+000
1.16670000E+001 2.66670000E+001 0.00000000E+000
1.09890000E+001 2.75140000E+001 0.00000000E+000
1.13620000E+001 2.69740000E+001 0.00000000E+000
1.02500000E+001 3.00000000E+001 0.00000000E+000
1.03900000E+001 2.87930000E+001 0.00000000E+000
1.03250000E+001 2.90340000E+001 0.00000000E+000
1.04500000E+001 2.85520000E+001 0.00000000E+000
1.05270000E+001 2.83160000E+001 0.00000000E+000
1.10560000E+001 2.72750000E+001 0.00000000E+000
1.02540000E+001 2.92710000E+001 0.00000000E+000
1.05920000E+001 2.80750000E+001 0.00000000E+000
1.01880000E+001 2.94960000E+001 0.00000000E+000
1.06820000E+001 2.78170000E+001 0.00000000E+000
1.14260000E+001 2.67320000E+001 0.00000000E+000
1.11210000E+001 2.70340000E+001 0.00000000E+000
1.07500000E+001 2.75770000E+001 0.00000000E+000
1.01120000E+001 2.97340000E+001 0.00000000E+000
1.08140000E+001 2.73360000E+001 0.00000000E+000
1.14910000E+001 2.64910000E+001 0.00000000E+000
1.02150000E+001 2.86170000E+001 0.00000000E+000
1.11850000E+001 2.67970000E+001 0.00000000E+000
1.01490000E+001 2.88570000E+001 0.00000000E+000
1.02870000E+001 2.83640000E+001 0.00000000E+000
1.00000000E+001 3.00000000E+001 0.00000000E+000
1.03530000E+001 2.81440000E+001 0.00000000E+000
1.00140000E+001 2.93220000E+001 0.00000000E+000
1.08800000E+001 2.71000000E+001 0.00000000E+000
1.04120000E+001 2.79020000E+001 0.00000000E+000
9.94820000E+000 2.95630000E+001 0.00000000E+000
1.05110000E+001 2.76420000E+001 0.00000000E+000
1.00000000E+001 2.90740000E+001 0.00000000E+000
1.12500000E+001 2.65570000E+001 0.00000000E+000
[...]
POINT_DATA    13139
SCALARS Ux float
LOOKUP_TABLE default
1.00000000E+000
1.00000000E+000
9.99975114E-001
9.99942947E-001
1.00000000E+000
9.99899473E-001
9.99877160E-001
1.00000000E+000
9.99770953E-001
9.99845659E-001
9.99696356E-001
1.00000000E+000
9.99595954E-001
9.99852956E-001
9.99662528E-001
9.99498136E-001
1.00000000E+000
9.99368844E-001
9.99438802E-001
9.99725765E-001
9.99248535E-001
1.00000000E+000
9.99091352E-001
9.99426200E-001
9.99164501E-001
9.99718099E-001
9.98948145E-001
1.00000000E+000
9.99153131E-001
9.98763059E-001
9.99394160E-001
9.98839171E-001
9.99674872E-001
9.98594540E-001
9.98822221E-001
9.99042483E-001
1.00000000E+000
9.98384373E-001
9.99305310E-001
9.98450839E-001
9.99631458E-001
9.98192762E-001
9.98630646E-001
9.98903817E-001
1.00000000E+000
9.97955730E-001
9.99218783E-001
9.97953286E-001
9.98179676E-001
9.99587732E-001
9.97741246E-001
9.98446061E-001
9.98762644E-001
1.00000000E+000
9.97477674E-001
9.99133654E-001
9.97682944E-001
9.97451227E-001
9.97948008E-001
9.97302045E-001
9.99544229E-001
9.98277133E-001
9.98634834E-001
1.00000000E+000
9.96946519E-001
9.99049602E-001
9.97424460E-001
9.97141106E-001
9.97735166E-001
9.96830566E-001
9.98105742E-001
9.99498946E-001
9.98506031E-001
1.00000000E+000
9.96364617E-001
9.96839437E-001
9.98964438E-001
9.96559926E-001
9.97161937E-001
9.97521592E-001
9.97930813E-001
9.99456818E-001
9.96077045E-001
9.98377176E-001
9.96213116E-001
9.96531385E-001
1.00000000E+000
9.96894120E-001
9.95737148E-001
9.98877247E-001
9.95812786E-001
9.97305159E-001
9.97746808E-001
9.99410999E-001
9.95424037E-001
9.98247266E-001
9.96631941E-001
1.00000000E+000
9.96081643E-001
9.95699443E-001
9.98789198E-001
9.95056474E-001
9.95355295E-001
9.97076631E-001
9.95133130E-001
9.97573679E-001
9.99368816E-001
9.98113434E-001
9.95916078E-001
9.94587414E-001
9.95361294E-001
9.94979323E-001
9.96359198E-001
9.94663213E-001
1.00000000E+000
9.98696225E-001
9.94327775E-001
9.96858309E-001
9.97392889E-001
9.99324590E-001
9.97979743E-001
9.94597963E-001
9.94998171E-001
9.95471869E-001
9.94212985E-001
9.96097456E-001
9.93900618E-001
1.00000000E+000
9.98604732E-001
9.96637375E-001
9.93551139E-001
9.93603256E-001
9.97216861E-001
9.99279834E-001
9.94193180E-001
9.93799662E-001
9.94666800E-001
9.93442483E-001
9.97846006E-001
9.95145812E-001
9.95830240E-001
9.93091094E-001
1.00000000E+000
9.96412276E-001
9.98517177E-001
9.92772420E-001
9.92724170E-001
9.97036145E-001
9.93816048E-001
9.93341594E-001
9.99235011E-001
9.92953496E-001
9.94303278E-001
9.92604651E-001
9.94870056E-001
9.97708414E-001
9.95561691E-001
9.92233460E-001
1.00000000E+000
9.96188468E-001
9.98431138E-001
9.91842633E-001
9.92506278E-001
9.92940009E-001
9.96859846E-001
9.93407042E-001
9.92061660E-001
9.93985336E-001
9.99189565E-001
9.91716594E-001
9.94587839E-001
9.97585248E-001
9.95294263E-001
9.91314028E-001
1.00000000E+000
9.95964872E-001
9.98334721E-001
9.90921207E-001
9.92005878E-001
9.91562865E-001
9.92475239E-001
9.93044089E-001
9.96683539E-001
9.91139762E-001
9.93618931E-001
9.90782266E-001
9.94357651E-001
9.99143860E-001
9.97446083E-001
9.95033927E-001
9.90417639E-001
9.95744927E-001
1.00000000E+000
9.91518925E-001
9.98241882E-001
9.91029974E-001
9.92089855E-001
9.89949579E-001
9.92638649E-001
9.90179981E-001
9.96497750E-001
9.93233657E-001
9.89813687E-001
9.94056220E-001
9.90275227E-001
9.99094528E-001
9.89457385E-001
9.97301671E-001
9.94758608E-001
9.91068732E-001
9.90124286E-001
9.90502180E-001
9.95520742E-001
1.00000000E+000
9.91619904E-001
9.92293099E-001
9.98151032E-001
9.88930839E-001
9.89178625E-001
9.92928581E-001
9.96308301E-001
9.88795766E-001
9.93726362E-001
9.99050402E-001
9.94480894E-001
9.88431505E-001
9.97157357E-001
9.89171752E-001
9.90034133E-001
9.88721379E-001
9.90558896E-001
9.89441284E-001
9.91235181E-001
9.88354823E-001
9.95279217E-001
9.91934804E-001
1.00000000E+000
9.98065368E-001
9.92662705E-001
9.87864834E-001
9.96138216E-001
9.87785244E-001
9.93404219E-001
9.99002688E-001
9.87380808E-001
9.94195756E-001
9.88933979E-001
9.88435382E-001
9.97033683E-001
9.88009304E-001
9.90125902E-001
9.89458474E-001
9.90756351E-001
9.91542237E-001
9.95053814E-001
9.87289994E-001
1.00000000E+000
9.97982632E-001
9.92280955E-001
9.86752879E-001
9.95945904E-001
9.93070445E-001
9.87022600E-001
9.86497597E-001
9.98953895E-001
9.87794030E-001
9.88336110E-001
9.89018495E-001
9.93921273E-001
9.89604698E-001
9.90361152E-001
9.96891693E-001
9.87026000E-001
9.91125258E-001
9.94805082E-001
9.86197863E-001
1.00000000E+000
9.91898027E-001
9.97878261E-001
9.85772089E-001
9.85596052E-001
9.95746130E-001
9.92750931E-001
9.87830396E-001
9.86614165E-001
9.85859278E-001
9.87155962E-001
9.88431370E-001
9.89175734E-001
9.98904258E-001
9.93628120E-001
9.89920565E-001
9.96731171E-001
9.85021111E-001
9.90713280E-001
9.85149285E-001
9.94558231E-001
1.00000000E+000
9.91530499E-001
9.85411211E-001
9.97774940E-001
9.84399586E-001
9.85636584E-001
9.86657030E-001
9.84464166E-001
9.95539166E-001
9.87207792E-001
9.92409723E-001
9.87963886E-001
9.85936533E-001
9.88679230E-001
9.84654347E-001
9.98853110E-001
9.89461970E-001
9.93331266E-001
9.96579125E-001
9.83800339E-001
9.90277953E-001
9.83926151E-001
9.94300905E-001
9.91138328E-001
1.00000000E+000
9.84875039E-001
9.97676439E-001
9.85401285E-001
9.84336040E-001
9.86698475E-001
9.85964691E-001
9.83158865E-001
9.87395712E-001
9.83811800E-001
9.92061235E-001
9.95336403E-001
9.83219886E-001
9.88135457E-001
9.88972637E-001
9.98800906E-001
9.93049445E-001
9.96426969E-001
9.89836898E-001
9.82538128E-001
9.94053851E-001
9.90771278E-001
9.84695688E-001
9.84115817E-001
9.83608776E-001
9.85383818E-001
1.00000000E+000
9.83054447E-001
9.86076982E-001
9.97572798E-001
9.82351966E-001
9.86862805E-001
9.81876954E-001
9.91714295E-001
9.82470451E-001
9.95128346E-001
9.81936731E-001
9.87639768E-001
9.88535065E-001
9.98742888E-001
9.92728719E-001
9.96269146E-001
9.89419197E-001
9.81235707E-001
9.84035967E-001
9.82794440E-001
9.83355718E-001
9.82324620E-001
9.84729361E-001
9.93779997E-001
9.81278388E-001
9.90336383E-001
9.85493705E-001
9.81735526E-001
9.81399637E-001
1.00000000E+000
9.86273082E-001
9.97462973E-001
9.87141086E-001
9.91340912E-001
9.80555462E-001
9.94910999E-001
9.80612407E-001
9.88009708E-001
9.92395802E-001
9.98690634E-001
9.82107190E-001
9.88941131E-001
9.96102421E-001
9.83404076E-001
9.82662107E-001
9.80996356E-001
9.81435019E-001
9.79894288E-001
9.84092454E-001
9.80474106E-001
9.80090511E-001
9.93508233E-001
9.84858329E-001
9.89910927E-001
9.85721023E-001
1.00000000E+000
9.97353341E-001
9.86563398E-001
9.90951615E-001
9.79196083E-001
9.94692919E-001
9.79249793E-001
9.87478358E-001
9.81404384E-001
9.92053674E-001
9.80205274E-001
9.80712156E-001
9.98631341E-001
9.81981320E-001
9.82667731E-001
9.88451387E-001
9.79623441E-001
9.83431950E-001
9.95933676E-001
9.79173685E-001
9.84262790E-001
9.78516019E-001
9.89505585E-001
9.78623090E-001
9.93224159E-001
9.85084907E-001
1.00000000E+000
9.97235473E-001
9.85976261E-001
9.90602154E-001
9.94456065E-001
9.77800668E-001
9.77852426E-001
9.79973925E-001
9.86931761E-001
9.80561122E-001
9.79325237E-001
9.81261756E-001
9.78798485E-001
9.81949442E-001
9.91746748E-001
9.78246164E-001
9.98573373E-001
9.82773136E-001
9.87970246E-001
9.77786471E-001
9.95754143E-001
9.83566217E-001
9.77102610E-001
9.89056274E-001
9.84439967E-001
9.92932283E-001
9.77203571E-001
1.00000000E+000
9.85383497E-001
9.97116504E-001
9.79212809E-001
9.90184598E-001
9.78509331E-001
9.79771184E-001
9.94216679E-001
9.76370902E-001
9.86399652E-001
9.77866411E-001
9.80458203E-001
9.76419947E-001
9.77356011E-001
9.81246200E-001
9.76574727E-001
9.76811297E-001
9.91353766E-001
9.82013787E-001
9.87460065E-001
9.98508926E-001
9.82905310E-001
9.95571137E-001
9.75655464E-001
9.88563845E-001
9.83792197E-001
9.92618208E-001
9.75750463E-001
9.84794179E-001
1.00000000E+000
9.77701664E-001
9.78251889E-001
9.96988306E-001
9.77010660E-001
9.78931341E-001
9.89730843E-001
9.79690675E-001
9.85828482E-001
9.93962544E-001
9.74908817E-001
9.80432365E-001
9.75325045E-001
9.76116342E-001
9.75658449E-001
9.81299485E-001
9.74842619E-001
9.90987044E-001
9.86906543E-001
9.98446977E-001
9.82178813E-001
9.95375046E-001
9.83148520E-001
9.74177178E-001
9.88064113E-001
9.92301224E-001
9.76730805E-001
9.76063418E-001
9.84150804E-001
9.77361485E-001
9.78102072E-001
1.00000000E+000
9.75356379E-001
9.78899080E-001
9.96858419E-001
9.89286272E-001
9.73930813E-001
9.85215927E-001
9.79656236E-001
9.74664688E-001
9.93700871E-001
9.73416918E-001
9.73890869E-001
9.80519173E-001
9.74012448E-001
9.86362929E-001
9.90578316E-001
9.81473866E-001
9.98375451E-001
9.73114579E-001
9.95168167E-001
9.82444442E-001
9.72670625E-001
9.75165203E-001
9.75795905E-001
9.76520353E-001
9.74508075E-001
9.91984066E-001
9.87480269E-001
9.77270517E-001
9.83490118E-001
9.73811951E-001
9.77993649E-001
1.00000000E+000
9.96715756E-001
9.88849896E-001
9.78840639E-001
9.84635443E-001
9.72783919E-001
9.73057900E-001
9.72425894E-001
9.93424031E-001
9.79758386E-001
9.71897272E-001
9.72030072E-001
9.71894837E-001
9.80713101E-001
9.90190105E-001
9.85864429E-001
9.98305549E-001
9.74324824E-001
9.81757668E-001
9.94954946E-001
9.73588608E-001
9.74889462E-001
9.73038873E-001
9.75618789E-001
9.71136856E-001
9.76313071E-001
9.87071067E-001
9.91631348E-001
9.82835979E-001
9.71909549E-001
9.72238482E-001
9.77126357E-001
9.71441619E-001
1.00000000E+000
9.78016704E-001
9.88514089E-001
9.96570487E-001
9.70984331E-001
9.84083829E-001
9.78938451E-001
9.93169621E-001
9.70560134E-001
9.70351927E-001
9.79951028E-001
9.89763079E-001
9.85236227E-001
9.73282541E-001
9.72693077E-001
9.73956890E-001
9.98225177E-001
9.71465427E-001
9.71970845E-001
9.80998271E-001
9.74634557E-001
9.94724145E-001
9.70935323E-001
9.86605067E-001
9.75416849E-001
9.70364433E-001
9.69578426E-001
9.82120123E-001
9.91289111E-001
9.76251340E-001
9.69908089E-001
9.77146098E-001
1.00000000E+000
9.69504340E-001
9.87929460E-001
9.96410557E-001
9.83351995E-001
9.78119516E-001
9.92856689E-001
9.68783885E-001
9.68814227E-001
9.71078372E-001
9.84653385E-001
9.71656953E-001
9.72274396E-001
9.72982890E-001
9.78727193E-001
9.70403344E-001
9.89353605E-001
9.69875835E-001
9.73678592E-001
9.98140038E-001
9.69368107E-001
9.79904734E-001
9.74468402E-001
9.94482611E-001
9.68897145E-001
9.75332895E-001
9.85974710E-001
9.76326463E-001
9.67999393E-001
9.90953994E-001
9.81408379E-001
9.68345066E-001
9.67983281E-001
1.00000000E+000
9.87350040E-001
9.82693797E-001
9.96244628E-001
9.92480020E-001
9.69999587E-001
9.76835914E-001
9.70597293E-001
9.71260531E-001
9.69422087E-001
9.68903626E-001
9.67195878E-001
9.84084137E-001
9.71922318E-001
9.67222620E-001
9.77979389E-001
9.88898164E-001
9.68255518E-001
9.72640263E-001
9.67782327E-001
9.79193877E-001
9.73503561E-001
9.98055035E-001
9.74456724E-001
9.94208359E-001
9.67254346E-001
9.85294899E-001
9.75421878E-001
9.66816699E-001
9.80673526E-001
9.90487726E-001
9.66572432E-001
9.66401186E-001
9.86783017E-001
1.00000000E+000
9.82029529E-001
9.96028454E-001
9.68896930E-001
9.68342365E-001
9.70302850E-001
9.69539055E-001
9.67780102E-001
9.67317209E-001
9.76020833E-001
9.92128795E-001
9.70971969E-001
9.66681610E-001
9.77195069E-001
9.65590349E-001
9.71660109E-001
9.83180766E-001
9.88338626E-001
9.72591367E-001
9.66182470E-001
9.78423214E-001
9.73488908E-001
9.97956342E-001
9.65654222E-001
9.65290467E-001
9.93915649E-001
9.84641693E-001
9.79825025E-001
9.65227551E-001
9.90005308E-001
9.64639236E-001
9.67873474E-001
9.66677883E-001
9.74054920E-001
9.67206674E-001
9.68523134E-001
9.86143980E-001
9.66148591E-001
9.69279682E-001
9.81060735E-001
1.00000000E+000
9.95823221E-001
9.65657987E-001
9.69996464E-001
9.75174064E-001
9.91837200E-001
9.70694775E-001
9.65035845E-001
9.76345339E-001
9.64622828E-001
9.63970932E-001
9.82431474E-001
9.87774431E-001
9.77686688E-001
9.64037155E-001
9.97856916E-001
9.93594738E-001
9.63661596E-001
9.83926508E-001
9.78896963E-001
9.63422339E-001
9.89525219E-001
9.70789738E-001
9.71928495E-001
9.66112975E-001
9.66739617E-001
9.63160272E-001
9.65497444E-001
9.67404538E-001
9.73122306E-001
9.68138077E-001
9.64039469E-001
9.85477387E-001
9.80182818E-001
9.64310902E-001
1.00000000E+000
9.64640762E-001
9.74246345E-001
9.95613671E-001
9.68675568E-001
9.63460449E-001
9.91311849E-001
9.75465335E-001
9.63019429E-001
9.81617868E-001
9.62339719E-001
9.87199136E-001
9.76696252E-001
9.62480763E-001
9.97741698E-001
9.62084661E-001
9.93282338E-001
9.83145511E-001
9.77909199E-001
9.69908583E-001
9.65624823E-001
9.66294370E-001
9.71052458E-001
9.68771353E-001
9.88878765E-001
9.62817040E-001
9.64775616E-001
9.72219300E-001
9.61562721E-001
9.66919886E-001
9.61543703E-001
9.62374280E-001
9.79282088E-001
9.73360737E-001
9.63829664E-001
9.61959615E-001
9.84840907E-001
9.67538551E-001
1.00000000E+000
9.63167973E-001
9.95324457E-001
9.90865875E-001
9.74344480E-001
9.62494012E-001
9.61390330E-001
9.80756232E-001
9.60987309E-001
9.75693847E-001
9.86455600E-001
9.60700141E-001
9.70441714E-001
9.97624567E-001
9.60478206E-001
9.82345132E-001
9.63792600E-001
9.68895148E-001
9.92799064E-001
9.65027598E-001
9.76903964E-001
9.71249922E-001
9.61193598E-001
9.64248183E-001
9.88360530E-001
9.66012439E-001
9.60060424E-001
9.67179137E-001
9.60748295E-001
9.62567647E-001
9.72086650E-001
9.78311220E-001
9.60303279E-001
9.83966431E-001
1.00000000E+000
9.59911520E-001
9.95055768E-001
9.73285066E-001
9.61575013E-001
9.90439950E-001
9.60970974E-001
9.79834410E-001
9.60463098E-001
9.59371804E-001
9.68326841E-001
9.74620908E-001
9.85811448E-001
9.59055246E-001
9.69078451E-001
9.58862073E-001
9.64073285E-001
9.97485745E-001
9.81512210E-001
9.63096406E-001
9.92460685E-001
9.62364159E-001
9.75821633E-001
9.59535382E-001
9.64730950E-001
9.69815051E-001
9.61455844E-001
9.87799162E-001
9.59116520E-001
9.66483942E-001
9.71066701E-001
9.58223649E-001
9.58612789E-001
9.83248287E-001
9.77273451E-001
9.65071162E-001
9.60372085E-001
9.59837318E-001
9.58273065E-001
1.00000000E+000
9.72281154E-001
9.94848140E-001
9.59268283E-001
9.89698072E-001
9.66883555E-001
9.58774985E-001
9.78854851E-001
9.73365964E-001
9.57743229E-001
9.67928260E-001
9.85048830E-001
9.57408486E-001
9.62698267E-001
9.61180375E-001
9.61881121E-001
9.60491820E-001
9.57239539E-001
9.92029930E-001
9.97331190E-001
9.57894001E-001
9.80533867E-001
9.74789846E-001
9.68705548E-001
9.57504834E-001
9.63209207E-001
9.59487890E-001
9.86949438E-001
9.64057012E-001
9.69930674E-001
9.56706387E-001
9.58591011E-001
9.56792238E-001
9.76158962E-001
9.64775807E-001
9.58104765E-001
9.82208331E-001
9.70851467E-001
9.65735200E-001
9.56473453E-001
9.57545324E-001
1.00000000E+000
9.94520013E-001
9.56573167E-001
9.57107868E-001
9.89172730E-001
9.77765047E-001
9.72173785E-001
9.66460980E-001
9.61590782E-001
9.60014515E-001
9.84099028E-001
9.60697455E-001
9.59262176E-001
9.55762827E-001
9.67531162E-001
9.56259611E-001
9.58400568E-001
9.91647849E-001
9.79361575E-001
9.73467001E-001
9.61940986E-001
9.97166823E-001
9.62840716E-001
9.57428076E-001
9.55326673E-001
9.55447852E-001
9.86271309E-001
9.56855889E-001
9.68323442E-001
9.63474313E-001
9.55050962E-001
9.56392642E-001
9.74941294E-001
9.81226835E-001
9.55873378E-001
9.69634983E-001
9.64212835E-001
9.54906475E-001
1.00000000E+000
9.94169948E-001
9.88608543E-001
9.59561180E-001
9.65135431E-001
9.60369591E-001
9.54926088E-001
9.58738221E-001
9.58066109E-001
9.76484833E-001
9.55173903E-001
9.70817355E-001
9.57377826E-001
9.83189921E-001
9.66036684E-001
9.54121781E-001
9.54378638E-001
9.56390369E-001
9.60645204E-001
9.72106500E-001
9.78289589E-001
9.96972213E-001
9.61282504E-001
9.55636899E-001
9.91019898E-001
9.67025070E-001
9.55099154E-001
9.53821471E-001
9.85425705E-001
9.54694549E-001
9.61947689E-001
9.73666271E-001
9.53520169E-001
9.53916886E-001
9.58565161E-001
9.53395936E-001
9.54171877E-001
9.80209403E-001
9.62736600E-001
9.68088636E-001
9.57505432E-001
1.00000000E+000
9.53726211E-001
9.93788621E-001
9.58687602E-001
9.87931637E-001
9.63542251E-001
9.75192256E-001
9.53137457E-001
9.56546345E-001
9.69253575E-001
9.59238651E-001
9.82211680E-001
9.55724437E-001
9.52795968E-001
9.64439021E-001
9.52488011E-001
9.54394916E-001
9.53937278E-001
9.54909508E-001
9.70702448E-001
9.59672766E-001
9.76984427E-001
9.96758786E-001
9.53413678E-001
9.52276037E-001
9.65378115E-001
9.90400897E-001
9.53020630E-001
9.60378645E-001
9.84540020E-001
9.51972823E-001
9.72106424E-001
9.56700358E-001
9.61080799E-001
9.52415407E-001
9.78833498E-001
9.66458720E-001
9.52150018E-001
9.51889582E-001
9.57122687E-001
1.00000000E+000
9.51455341E-001
9.93333901E-001
9.51607406E-001
9.61866610E-001
9.73723278E-001
9.67742724E-001
9.86865202E-001
9.57534003E-001
9.53016057E-001
9.51222935E-001
9.62838352E-001
9.54944080E-001
9.81026729E-001
9.54181614E-001
9.52517283E-001
9.53225670E-001
9.52184301E-001
9.58139182E-001
9.53581812E-001
9.50864598E-001
9.50949164E-001
9.69040182E-001
9.51692289E-001
9.75442391E-001
9.51370724E-001
9.96502709E-001
9.63754227E-001
9.58655017E-001
9.89681329E-001
9.50393188E-001
9.83180471E-001
9.50828416E-001
9.70456349E-001
9.59361761E-001
9.50569468E-001
9.54661576E-001
9.64789765E-001
9.50092347E-001
9.77448001E-001
9.50338332E-001
9.55337098E-001
9.60197582E-001
9.51387412E-001
1.00000000E+000
9.92816571E-001
9.49890772E-001
9.71994968E-001
9.65951259E-001
9.55853139E-001
9.51488976E-001
9.51825395E-001
9.49730813E-001
9.85842821E-001
9.50563954E-001
9.50805367E-001
9.61025487E-001
9.51978286E-001
9.56316610E-001
9.79379994E-001
9.50080905E-001
9.49353035E-001
9.52301032E-001
9.49255637E-001
9.67223223E-001
9.49748419E-001
9.73803904E-001
9.49114117E-001
9.49515672E-001
9.96213793E-001
9.61888725E-001
9.52498580E-001
9.56860279E-001
9.49234380E-001
9.88842140E-001
9.53253173E-001
9.68735126E-001
9.81871835E-001
9.57589001E-001
9.62911941E-001
9.48752473E-001
9.49749248E-001
9.52461369E-001
9.75890830E-001
9.53677632E-001
9.49962459E-001
9.48375641E-001
9.58313318E-001
9.48455150E-001
9.50036938E-001
1.00000000E+000
9.49140612E-001
9.50283168E-001
9.92194112E-001
9.70362538E-001
9.54022783E-001
9.48225335E-001
9.63997166E-001
9.48864069E-001
9.84675460E-001
9.50412049E-001
9.48003885E-001
9.59058196E-001
9.54526890E-001
9.48406036E-001
9.50657190E-001
9.77800216E-001
9.48180396E-001
9.65362516E-001
9.55211260E-001
9.47664154E-001
9.47956527E-001
9.47596535E-001
9.72029559E-001
9.50815910E-001
9.59923180E-001
9.47717666E-001
9.95854617E-001
9.87848396E-001
9.51067310E-001
9.51494826E-001
9.66742729E-001
9.80410791E-001
9.47256959E-001
9.47966561E-001
9.60845546E-001
9.47053352E-001
9.74095628E-001
9.47534927E-001
9.56266958E-001
9.48060968E-001
9.47798365E-001
1.00000000E+000
9.52159530E-001
9.47206823E-001
9.46714899E-001
9.61984476E-001
9.68191596E-001
9.91442837E-001
9.54434312E-001
9.46543358E-001
9.48124502E-001
9.48418874E-001
9.83294671E-001
9.46833928E-001
9.56983745E-001
9.46622703E-001
9.46331927E-001
9.50715007E-001
9.48602923E-001
9.52696390E-001
9.46429791E-001
9.76014890E-001
9.63204775E-001
9.46092298E-001
9.70022325E-001
9.57748527E-001
9.46109005E-001
9.49412126E-001
9.95429388E-001
9.48624089E-001
9.86649703E-001
9.45803077E-001
9.64432583E-001
9.53635250E-001
9.78590239E-001
9.46160538E-001
9.58676825E-001
9.45480516E-001
9.46246177E-001
9.45886065E-001
9.49919058E-001
9.46309044E-001
9.46522373E-001
9.45581107E-001
9.54240168E-001
9.45416798E-001
9.46558738E-001
9.71221913E-001
1.00000000E+000
9.59725525E-001
9.46793153E-001
9.65951897E-001
9.50230949E-001
9.45089248E-001
9.90505768E-001
9.45221264E-001
9.81619255E-001
9.50858200E-001
9.44888700E-001
9.46772734E-001
9.54855602E-001
9.44897796E-001
9.44727391E-001
9.60993542E-001
9.44674369E-001
9.67815390E-001
9.73582396E-001
9.47176617E-001
9.44543400E-001
9.51072007E-001
9.55465701E-001
9.47419060E-001
9.46505841E-001
9.94876428E-001
9.44317767E-001
9.85159633E-001
9.47770392E-001
9.44714735E-001
9.44236567E-001
9.62142187E-001
9.51479680E-001
9.44479516E-001
9.76471529E-001
9.56313314E-001
9.44293706E-001
9.44799610E-001
9.44590931E-001
9.48004468E-001
9.43952556E-001
9.44848044E-001