# vtk DataFile Version 1.0
ECM-CELL DIFFUSION-MECHANICS
ASCII

DATASET UNSTRUCTURED_GRID
POINTS    38426 float
1.50000000E+001 3.00000000E+001 0.00000000E+000
1.49120000E+001 2.99120000E+001 0.00000000E+000
1.48750000E+001 3.00000000E+001 0.00000000E+000
1.48250000E+001 2.98250000E+001 0.00000000E+000
1.47500000E+001 3.00000000E+001 0.00000000E+000
1.47660000E+001 2.98520000E+001 0.00000000E+000
1.47290000E+001 2.99400000E+001 0.00000000E+000
1.47080000E+001 2.98790000E+001 0.00000000E+000
1.47370000E+001 2.97370000E+001 0.00000000E+000
1.46250000E+001 3.00000000E+001 0.00000000E+000
1.46300000E+001 2.98470000E+001 0.00000000E+000
1.46010000E+001 2.97320000E+001 0.00000000E+000
1.45260000E+001 2.99070000E+001 0.00000000E+000
1.45530000E+001 2.98140000E+001 0.00000000E+000
1.46490000E+001 2.96490000E+001 0.00000000E+000
1.45000000E+001 3.00000000E+001 0.00000000E+000
1.44540000E+001 2.97740000E+001 0.00000000E+000
1.45610000E+001 2.95610000E+001 0.00000000E+000
1.43750000E+001 3.00000000E+001 0.00000000E+000
1.43550000E+001 2.97330000E+001 0.00000000E+000
1.44140000E+001 2.96030000E+001 0.00000000E+000
1.43020000E+001 2.98660000E+001 0.00000000E+000
1.44740000E+001 2.94740000E+001 0.00000000E+000
1.42500000E+001 3.00000000E+001 0.00000000E+000
1.42480000E+001 2.96880000E+001 0.00000000E+000
1.43860000E+001 2.93860000E+001 0.00000000E+000
1.41250000E+001 3.00000000E+001 0.00000000E+000
1.41420000E+001 2.96430000E+001 0.00000000E+000
1.42200000E+001 2.94710000E+001 0.00000000E+000
1.40710000E+001 2.98220000E+001 0.00000000E+000
1.42980000E+001 2.92980000E+001 0.00000000E+000
1.40000000E+001 3.00000000E+001 0.00000000E+000
1.40290000E+001 2.95970000E+001 0.00000000E+000
1.42110000E+001 2.92110000E+001 0.00000000E+000
1.38750000E+001 3.00000000E+001 0.00000000E+000
1.39160000E+001 2.95500000E+001 0.00000000E+000
1.40190000E+001 2.93370000E+001 0.00000000E+000
1.38330000E+001 2.97750000E+001 0.00000000E+000
1.41230000E+001 2.91230000E+001 0.00000000E+000
1.37500000E+001 3.00000000E+001 0.00000000E+000
1.37730000E+001 2.94920000E+001 0.00000000E+000
1.40350000E+001 2.90350000E+001 0.00000000E+000
1.36250000E+001 3.00000000E+001 0.00000000E+000
1.37890000E+001 2.91900000E+001 0.00000000E+000
1.35650000E+001 2.97160000E+001 0.00000000E+000
1.36310000E+001 2.94330000E+001 0.00000000E+000
1.39470000E+001 2.89470000E+001 0.00000000E+000
1.35000000E+001 3.00000000E+001 0.00000000E+000
1.38600000E+001 2.88600000E+001 0.00000000E+000
1.35660000E+001 2.92530000E+001 0.00000000E+000
1.34570000E+001 2.95130000E+001 0.00000000E+000
1.33750000E+001 3.00000000E+001 0.00000000E+000
1.37720000E+001 2.87720000E+001 0.00000000E+000
1.36360000E+001 2.89220000E+001 0.00000000E+000
1.32670000E+001 2.97970000E+001 0.00000000E+000
1.32500000E+001 3.00000000E+001 0.00000000E+000
1.35000000E+001 2.90720000E+001 0.00000000E+000
1.32840000E+001 2.95930000E+001 0.00000000E+000
1.32570000E+001 2.94280000E+001 0.00000000E+000
1.33650000E+001 2.91670000E+001 0.00000000E+000
1.36840000E+001 2.86840000E+001 0.00000000E+000
1.31250000E+001 3.00000000E+001 0.00000000E+000
1.34350000E+001 2.89470000E+001 0.00000000E+000
1.31430000E+001 2.96320000E+001 0.00000000E+000
1.32300000E+001 2.92620000E+001 0.00000000E+000
1.35960000E+001 2.85960000E+001 0.00000000E+000
1.34830000E+001 2.87090000E+001 0.00000000E+000
1.30000000E+001 3.00000000E+001 0.00000000E+000
1.30010000E+001 2.98360000E+001 0.00000000E+000
1.33690000E+001 2.88220000E+001 0.00000000E+000
1.31840000E+001 2.91310000E+001 0.00000000E+000
1.31010000E+001 2.93200000E+001 0.00000000E+000
1.30010000E+001 2.96710000E+001 0.00000000E+000
1.32530000E+001 2.89100000E+001 0.00000000E+000
1.29860000E+001 2.95240000E+001 0.00000000E+000
1.35090000E+001 2.85090000E+001 0.00000000E+000
1.31380000E+001 2.89990000E+001 0.00000000E+000
1.29710000E+001 2.93780000E+001 0.00000000E+000
1.28750000E+001 3.00000000E+001 0.00000000E+000
1.32940000E+001 2.87170000E+001 0.00000000E+000
1.28760000E+001 2.96930000E+001 0.00000000E+000
1.30250000E+001 2.90630000E+001 0.00000000E+000
1.29420000E+001 2.92520000E+001 0.00000000E+000
1.30800000E+001 2.88900000E+001 0.00000000E+000
1.28500000E+001 2.94130000E+001 0.00000000E+000
1.34210000E+001 2.84210000E+001 0.00000000E+000
1.33200000E+001 2.85160000E+001 0.00000000E+000
1.27500000E+001 3.00000000E+001 0.00000000E+000
1.27500000E+001 2.98570000E+001 0.00000000E+000
1.32200000E+001 2.86120000E+001 0.00000000E+000
1.29120000E+001 2.91260000E+001 0.00000000E+000
1.27500000E+001 2.97150000E+001 0.00000000E+000
1.31210000E+001 2.86960000E+001 0.00000000E+000
1.27390000E+001 2.95810000E+001 0.00000000E+000
1.30220000E+001 2.87800000E+001 0.00000000E+000
1.27290000E+001 2.94480000E+001 0.00000000E+000
1.28680000E+001 2.90200000E+001 0.00000000E+000
1.28030000E+001 2.91690000E+001 0.00000000E+000
1.33330000E+001 2.83330000E+001 0.00000000E+000
1.26250000E+001 3.00000000E+001 0.00000000E+000
1.29230000E+001 2.88470000E+001 0.00000000E+000
1.31430000E+001 2.85180000E+001 0.00000000E+000
1.27110000E+001 2.93300000E+001 0.00000000E+000
1.26270000E+001 2.97260000E+001 0.00000000E+000
1.28250000E+001 2.89140000E+001 0.00000000E+000
1.29540000E+001 2.86850000E+001 0.00000000E+000
1.26940000E+001 2.92120000E+001 0.00000000E+000
1.26140000E+001 2.94680000E+001 0.00000000E+000
1.32460000E+001 2.82460000E+001 0.00000000E+000
1.31560000E+001 2.83350000E+001 0.00000000E+000
1.27320000E+001 2.89630000E+001 0.00000000E+000
1.30660000E+001 2.84250000E+001 0.00000000E+000
1.26660000E+001 2.91120000E+001 0.00000000E+000
1.25000000E+001 3.00000000E+001 0.00000000E+000
1.25020000E+001 2.98690000E+001 0.00000000E+000
1.25030000E+001 2.97370000E+001 0.00000000E+000
1.29760000E+001 2.85070000E+001 0.00000000E+000
1.27690000E+001 2.88230000E+001 0.00000000E+000
1.25910000E+001 2.92360000E+001 0.00000000E+000
1.25020000E+001 2.96120000E+001 0.00000000E+000
1.28860000E+001 2.85890000E+001 0.00000000E+000
1.25000000E+001 2.94870000E+001 0.00000000E+000
1.26390000E+001 2.90120000E+001 0.00000000E+000
1.27990000E+001 2.86610000E+001 0.00000000E+000
1.24940000E+001 2.93740000E+001 0.00000000E+000
1.31580000E+001 2.81580000E+001 0.00000000E+000
1.29850000E+001 2.83360000E+001 0.00000000E+000
1.27120000E+001 2.87320000E+001 0.00000000E+000
1.24880000E+001 2.92610000E+001 0.00000000E+000
1.23750000E+001 3.00000000E+001 0.00000000E+000
1.26000000E+001 2.89320000E+001 0.00000000E+000
1.25530000E+001 2.90400000E+001 0.00000000E+000
1.23830000E+001 2.97420000E+001 0.00000000E+000
1.28110000E+001 2.85020000E+001 0.00000000E+000
1.26360000E+001 2.87920000E+001 0.00000000E+000
1.24780000E+001 2.91640000E+001 0.00000000E+000
1.23850000E+001 2.94950000E+001 0.00000000E+000
1.25610000E+001 2.88520000E+001 0.00000000E+000
1.24680000E+001 2.90680000E+001 0.00000000E+000
1.26440000E+001 2.86520000E+001 0.00000000E+000
1.23820000E+001 2.92670000E+001 0.00000000E+000
1.29870000E+001 2.81580000E+001 0.00000000E+000
1.25060000E+001 2.88930000E+001 0.00000000E+000
1.30700000E+001 2.80700000E+001 0.00000000E+000
1.24590000E+001 2.90010000E+001 0.00000000E+000
1.29040000E+001 2.82470000E+001 0.00000000E+000
1.28200000E+001 2.83310000E+001 0.00000000E+000
1.22560000E+001 2.98730000E+001 0.00000000E+000
1.22620000E+001 2.97460000E+001 0.00000000E+000
1.22500000E+001 3.00000000E+001 0.00000000E+000
1.22660000E+001 2.96250000E+001 0.00000000E+000
1.24510000E+001 2.89340000E+001 0.00000000E+000
1.27360000E+001 2.84140000E+001 0.00000000E+000
1.22700000E+001 2.95030000E+001 0.00000000E+000
1.24960000E+001 2.87890000E+001 0.00000000E+000
1.23770000E+001 2.90660000E+001 0.00000000E+000
1.26560000E+001 2.84930000E+001 0.00000000E+000
1.22730000E+001 2.93880000E+001 0.00000000E+000
1.25750000E+001 2.85720000E+001 0.00000000E+000
1.22760000E+001 2.92740000E+001 0.00000000E+000
1.23890000E+001 2.89070000E+001 0.00000000E+000
1.25040000E+001 2.86490000E+001 0.00000000E+000
1.22820000E+001 2.91690000E+001 0.00000000E+000
1.28200000E+001 2.81590000E+001 0.00000000E+000
1.29820000E+001 2.79820000E+001 0.00000000E+000
1.24320000E+001 2.87260000E+001 0.00000000E+000
1.22870000E+001 2.90650000E+001 0.00000000E+000
1.21390000E+001 2.97480000E+001 0.00000000E+000
1.21250000E+001 3.00000000E+001 0.00000000E+000
1.26550000E+001 2.83280000E+001 0.00000000E+000
1.23790000E+001 2.88030000E+001 0.00000000E+000
1.23070000E+001 2.89730000E+001 0.00000000E+000
1.21500000E+001 2.95040000E+001 0.00000000E+000
1.23260000E+001 2.88810000E+001 0.00000000E+000
1.24970000E+001 2.84940000E+001 0.00000000E+000
1.21620000E+001 2.92690000E+001 0.00000000E+000
1.23480000E+001 2.86600000E+001 0.00000000E+000
1.28160000E+001 2.79830000E+001 0.00000000E+000
1.27360000E+001 2.80720000E+001 0.00000000E+000
1.21810000E+001 2.90470000E+001 0.00000000E+000
1.28950000E+001 2.78950000E+001 0.00000000E+000
1.26550000E+001 2.81570000E+001 0.00000000E+000
1.20160000E+001 2.97490000E+001 0.00000000E+000
1.20080000E+001 2.98750000E+001 0.00000000E+000
1.25740000E+001 2.82430000E+001 0.00000000E+000
1.20230000E+001 2.96270000E+001 0.00000000E+000
1.20000000E+001 3.00000000E+001 0.00000000E+000
1.22290000E+001 2.88370000E+001 0.00000000E+000
1.20310000E+001 2.95040000E+001 0.00000000E+000
1.24960000E+001 2.83290000E+001 0.00000000E+000
1.20400000E+001 2.93840000E+001 0.00000000E+000
1.24180000E+001 2.84150000E+001 0.00000000E+000
1.20490000E+001 2.92640000E+001 0.00000000E+000
1.23410000E+001 2.85040000E+001 0.00000000E+000
1.20620000E+001 2.91460000E+001 0.00000000E+000
1.22630000E+001 2.85940000E+001 0.00000000E+000
1.20750000E+001 2.90280000E+001 0.00000000E+000
1.21970000E+001 2.86940000E+001 0.00000000E+000
1.21030000E+001 2.89110000E+001 0.00000000E+000
1.26500000E+001 2.79830000E+001 0.00000000E+000
1.28070000E+001 2.78070000E+001 0.00000000E+000
1.21320000E+001 2.87940000E+001 0.00000000E+000
1.24890000E+001 2.81550000E+001 0.00000000E+000
1.18920000E+001 2.97500000E+001 0.00000000E+000
1.18750000E+001 3.00000000E+001 0.00000000E+000
1.19080000E+001 2.95030000E+001 0.00000000E+000
[...]
POINT_DATA    38426
SCALARS Ux float
LOOKUP_TABLE default
1.00000000E+000
1.00000000E+000
9.99993405E-001
1.00000000E+000
9.99974493E-001
9.99986407E-001
9.99971073E-001
9.99970792E-001
1.00000000E+000
9.99941878E-001
9.99953201E-001
9.99964054E-001
9.99910769E-001
9.99931659E-001
1.00000000E+000
9.99896757E-001
9.99897999E-001
1.00000000E+000
9.99838702E-001
9.99857546E-001
9.99923328E-001
9.99806219E-001
1.00000000E+000
9.99767617E-001
9.99806689E-001
1.00000000E+000
9.99683797E-001
9.99748488E-001
9.99864354E-001
9.99656684E-001
1.00000000E+000
9.99586907E-001
9.99677761E-001
1.00000000E+000
9.99477323E-001
9.99598315E-001
9.99784036E-001
9.99458501E-001
1.00000000E+000
9.99354463E-001
9.99484669E-001
1.00000000E+000
9.99219263E-001
9.99665392E-001
9.99182900E-001
9.99358566E-001
1.00000000E+000
9.99070419E-001
1.00000000E+000
9.99381334E-001
9.99114595E-001
9.98909519E-001
1.00000000E+000
9.99711671E-001
9.98776731E-001
9.98735099E-001
9.99425969E-001
9.98852175E-001
9.98880240E-001
9.99182248E-001
1.00000000E+000
9.98548096E-001
9.99446156E-001
9.98631714E-001
9.98930997E-001
1.00000000E+000
9.99737832E-001
9.98348070E-001
9.98360857E-001
9.99474280E-001
9.98949603E-001
9.98701463E-001
9.98394337E-001
9.99229869E-001
9.98418328E-001
1.00000000E+000
9.98981596E-001
9.98459338E-001
9.98135246E-001
9.99477590E-001
9.98175833E-001
9.98751267E-001
9.98481618E-001
9.98985918E-001
9.98233110E-001
1.00000000E+000
9.99743734E-001
9.97909436E-001
9.97917888E-001
9.99486783E-001
9.98514498E-001
9.97942909E-001
9.99243645E-001
9.97961286E-001
9.98998323E-001
9.97995775E-001
9.98518838E-001
9.98291328E-001
1.00000000E+000
9.97670816E-001
9.98766753E-001
9.99482457E-001
9.98021260E-001
9.97705640E-001
9.98532632E-001
9.98984604E-001
9.98059890E-001
9.97765684E-001
1.00000000E+000
9.99740338E-001
9.98318978E-001
9.99479280E-001
9.98075265E-001
9.97419352E-001
9.97430538E-001
9.97453979E-001
9.99228033E-001
9.98515609E-001
9.97843936E-001
9.97485381E-001
9.98975708E-001
9.97527605E-001
9.98100211E-001
9.98738737E-001
9.97568106E-001
1.00000000E+000
9.99466114E-001
9.98500904E-001
9.97619183E-001
9.97155041E-001
9.98091224E-001
9.97906863E-001
9.97199676E-001
9.98946739E-001
9.98293476E-001
9.97661236E-001
9.97281423E-001
9.98086275E-001
9.97710245E-001
9.98456651E-001
9.97390970E-001
9.99727378E-001
9.97936068E-001
1.00000000E+000
9.97744567E-001
9.99454062E-001
9.99186677E-001
9.96898072E-001
9.96931473E-001
9.96877814E-001
9.96971764E-001
9.97784744E-001
9.98920673E-001
9.97024451E-001
9.98014741E-001
9.97517929E-001
9.98667273E-001
9.97083564E-001
9.98411836E-001
9.97152985E-001
9.97676538E-001
9.98179074E-001
9.97233642E-001
9.99436150E-001
1.00000000E+000
9.97944945E-001
9.97320334E-001
9.96647006E-001
9.96587849E-001
9.98881885E-001
9.97752985E-001
9.97439212E-001
9.96747742E-001
9.97562535E-001
9.98347198E-001
9.96894210E-001
9.97834753E-001
9.99709721E-001
9.99417234E-001
9.97092094E-001
1.00000000E+000
9.99130222E-001
9.96350309E-001
9.96311214E-001
9.98842330E-001
9.96398673E-001
9.96285036E-001
9.97385600E-001
9.96462081E-001
9.98561399E-001
9.96538748E-001
9.98281684E-001
9.96627182E-001
9.98001632E-001
9.96735730E-001
9.97719889E-001
9.96855540E-001
9.97456996E-001
9.97021966E-001
9.99398183E-001
1.00000000E+000
9.97201334E-001
9.98799504E-001
9.96038660E-001
9.95969474E-001
9.96154992E-001
9.98202252E-001
9.96327521E-001
9.97583216E-001
9.96561522E-001
9.99377426E-001
9.99687140E-001
1.00000000E+000
9.99064853E-001
9.98755417E-001
9.95714659E-001
9.95671540E-001
9.95770187E-001
9.95641106E-001
9.98439027E-001
9.95835965E-001
9.96924186E-001
9.95919729E-001
9.98122128E-001
9.96016280E-001
9.97780270E-001
9.96128626E-001
9.97440935E-001
9.96255445E-001
9.99357223E-001
1.00000000E+000
9.98714354E-001
9.95378333E-001
9.97038674E-001
9.96436336E-001
9.95299983E-001
9.95498215E-001
9.98058198E-001
9.95675429E-001
9.96637574E-001
9.97360305E-001
9.95895898E-001
9.99337020E-001
9.99668808E-001
9.99005828E-001
1.00000000E+000
9.98673743E-001
9.95029224E-001
9.94981388E-001
9.95083716E-001
9.98330951E-001
9.95150979E-001
9.94946208E-001
9.95230958E-001
9.97990999E-001
9.95320853E-001
9.96578724E-001
9.96196201E-001
9.97635010E-001
9.95417793E-001
9.97280415E-001
9.95524624E-001
9.99317052E-001
1.00000000E+000
9.98633107E-001
9.94661737E-001
9.94784532E-001
9.94579670E-001
9.96905892E-001
9.95625001E-001
9.97934230E-001
9.94955422E-001
9.96530513E-001
9.95739409E-001
9.97209695E-001
9.95155234E-001
9.99299300E-001
9.99649057E-001
1.00000000E+000
9.98945735E-001
9.98597250E-001
9.94281155E-001
9.94336952E-001
9.94234553E-001
9.98236995E-001
9.94408213E-001
9.94200532E-001
9.96165049E-001
9.95758783E-001
9.94485810E-001
9.97874368E-001
9.94576415E-001
9.96469175E-001
9.95363749E-001
9.97506422E-001
9.94666849E-001
9.97139892E-001
9.94772830E-001
9.95791087E-001
9.99279344E-001
1.00000000E+000
9.98552074E-001
9.96775171E-001
9.94868219E-001
9.93884756E-001
9.94013353E-001
9.93808756E-001
9.97806321E-001
9.94184557E-001
9.96412061E-001
9.94975764E-001
9.95473679E-001
9.95763188E-001
9.94390196E-001
9.97050148E-001
9.95056392E-001
9.96076639E-001
9.99627184E-001
1.00000000E+000
9.99259576E-001
9.98883255E-001
9.98507110E-001
9.95148132E-001
9.93475410E-001
9.93535567E-001
9.95741826E-001
9.93433648E-001
9.93608325E-001
9.93404388E-001
9.98123325E-001
9.93689625E-001
9.94623038E-001
9.96313722E-001
9.97737671E-001
9.93783695E-001
9.95209828E-001
9.95507977E-001
9.93882950E-001
9.97350432E-001
9.93995302E-001
9.95276080E-001
9.96965317E-001
9.94855904E-001
9.95629462E-001
9.94121580E-001
1.00000000E+000
9.96589805E-001
9.99235203E-001
9.98460088E-001
9.94257690E-001
9.93056230E-001
9.96214560E-001
9.92987517E-001
9.93180784E-001
9.95116141E-001
9.94404932E-001
9.97666110E-001
9.93361318E-001
9.95862592E-001
9.94559441E-001
9.95515239E-001
9.93592117E-001
9.94751159E-001
9.96866742E-001
9.95231604E-001
9.94954694E-001
1.00000000E+000
9.99605413E-001
9.99213411E-001
9.93886391E-001
9.98811492E-001
9.96085688E-001
9.98412473E-001
9.92621120E-001
9.92585156E-001
9.92676120E-001
9.92558144E-001
9.98001769E-001
9.92739954E-001
9.92830387E-001
9.97591508E-001
9.92929224E-001
9.94244463E-001
9.95348218E-001
9.93048673E-001
9.97181809E-001
9.93180075E-001
9.94715163E-001
9.96772701E-001
9.93332764E-001
9.96363753E-001
1.00000000E+000
9.93501819E-001
9.99186754E-001
9.95957016E-001
9.93705735E-001
9.98363667E-001
9.95563600E-001
9.92176693E-001
9.92116335E-001
9.92296913E-001
9.93918792E-001
9.95175258E-001
9.94187412E-001
9.94818978E-001
9.97515776E-001
9.92488344E-001
9.94471775E-001
9.92751349E-001
9.96662200E-001
9.93098819E-001
1.00000000E+000
9.99581347E-001
9.95813616E-001
9.99162371E-001
9.98735792E-001
9.98311691E-001
9.93566066E-001
9.91686643E-001
9.91719710E-001
9.91775849E-001
9.91662140E-001
9.91840829E-001
9.94966011E-001
9.97877157E-001
9.91929713E-001
9.94192122E-001
9.92031099E-001
9.97442721E-001
9.92165473E-001
9.96994674E-001
9.92313102E-001
9.92492167E-001
9.96550633E-001
9.96111309E-001
9.92685321E-001
1.00000000E+000
9.92934478E-001
9.95671805E-001
9.99138134E-001
9.95208100E-001
9.93199968E-001
9.93545693E-001
9.98256350E-001
9.94750598E-001
9.94320909E-001
9.91250033E-001
9.91195714E-001
9.93901790E-001
9.91368467E-001
9.91564203E-001
9.97352369E-001
9.91849879E-001
9.96421612E-001
9.92242495E-001
9.95515227E-001
1.00000000E+000
9.99554181E-001
9.99110844E-001
9.92794392E-001
9.98656031E-001
9.98203460E-001
9.90734571E-001
9.90768035E-001
9.90716940E-001
9.93553814E-001
9.90817675E-001
9.94514751E-001
9.90883376E-001
9.97730710E-001
9.90973868E-001
9.91080889E-001
9.97260797E-001
9.91218041E-001
9.91369343E-001
9.96771411E-001
9.91569232E-001
9.91783595E-001
9.96285057E-001
9.95818947E-001
9.92073876E-001
9.95354782E-001
1.00000000E+000
9.92382401E-001
9.99085953E-001
9.92775561E-001
9.94811299E-001
9.93193542E-001
9.98143262E-001
9.90226016E-001
9.90273488E-001
9.93722390E-001
9.90389233E-001
9.94271880E-001
9.90591581E-001
9.97149007E-001
9.90883092E-001
9.95227042E-001
9.91305218E-001
9.94402551E-001
1.00000000E+000
9.96074724E-001
9.99532324E-001
9.91900021E-001
9.99060934E-001
9.98573910E-001
9.93841794E-001
9.89741071E-001
9.89723081E-001
9.89766668E-001
9.98082850E-001
9.89820752E-001
9.89887232E-001
9.92700447E-001
9.89982695E-001
9.90086646E-001
9.97560657E-001
9.94540716E-001
9.90230815E-001
9.94818594E-001
9.95100143E-001
9.90388561E-001
9.97040827E-001
9.90591351E-001
9.90810539E-001
9.95476231E-001
9.96448177E-001
9.91095638E-001
9.94321889E-001
1.00000000E+000
9.91403049E-001
9.99035753E-001
9.95860347E-001
9.94852913E-001
9.93397907E-001
9.91786075E-001
9.93740427E-001
9.89208066E-001
9.89251573E-001
9.92788922E-001
9.98036391E-001
9.89370729E-001
9.94094139E-001
9.89563866E-001
9.92194947E-001
9.94341940E-001
9.89857048E-001
9.96992051E-001
9.94600684E-001
9.90271843E-001
9.95388574E-001
9.93187502E-001
9.93890684E-001
1.00000000E+000
9.90831980E-001
9.99507258E-001
9.94386581E-001
9.94748813E-001
9.99010317E-001
9.95857060E-001
9.98502523E-001
9.92141817E-001
9.88696667E-001
9.88681149E-001
9.88723876E-001
9.88776576E-001
9.97990468E-001
9.88841264E-001
9.88928101E-001
9.93928881E-001
9.94172011E-001
9.93685851E-001
9.89026447E-001
9.91498279E-001
9.93327434E-001
9.94904547E-001
9.89163637E-001
9.97469617E-001
9.92977080E-001
9.89314398E-001
9.89509737E-001
9.96947221E-001
9.89720629E-001
9.92533700E-001
9.94157021E-001
9.94525357E-001
9.89975815E-001
9.96402419E-001
9.93560367E-001
1.00000000E+000
9.90248131E-001
9.92092641E-001
9.92831476E-001
9.98988099E-001
9.90506592E-001
9.94142854E-001
9.95855565E-001
9.94883628E-001
9.88142406E-001
9.88188878E-001
9.93786548E-001
9.88301203E-001
9.97954312E-001
9.88495041E-001
9.92074307E-001
9.90783467E-001
9.93431506E-001
9.88776940E-001
9.95363698E-001
9.93053343E-001
9.91593824E-001
9.92684363E-001
9.89170298E-001
9.96887939E-001
9.92370064E-001
9.90932938E-001
9.94038425E-001
9.92064093E-001
9.89663107E-001
9.94865151E-001
1.00000000E+000
9.99481924E-001
9.98962353E-001
9.93239093E-001
9.95805927E-001
9.94399910E-001
9.98437923E-001
9.91092167E-001
9.87611291E-001
9.87642120E-001
9.87591993E-001
9.87690064E-001
9.90171440E-001
9.87748837E-001
9.97915517E-001
9.87844747E-001
9.92410975E-001
9.87952266E-001
9.91743639E-001
9.88084206E-001
9.93926996E-001
9.97374483E-001
9.88227774E-001
9.88411209E-001
9.91250804E-001
9.93487519E-001
9.88608360E-001
9.96828998E-001
9.88830131E-001
9.94783899E-001
9.93043565E-001
9.89065007E-001
9.96294300E-001
9.92588959E-001
1.00000000E+000
9.91418503E-001
9.91775005E-001
9.89299439E-001
9.92138466E-001
9.90523851E-001
9.98943386E-001
9.95758056E-001
9.89547251E-001
9.93793999E-001
9.87077528E-001
9.87029938E-001
9.87193397E-001
9.95225663E-001
9.97873304E-001
9.87399258E-001
9.87672574E-001
9.89738335E-001
9.94698968E-001
9.88040830E-001
9.92819037E-001
9.96763645E-001
9.88484675E-001
9.94180387E-001
9.89943043E-001
9.90880066E-001
1.00000000E+000
9.99462984E-001
9.93659642E-001
9.95660570E-001
9.91734908E-001
9.98920902E-001
9.88948733E-001
9.98376873E-001
9.93127421E-001
9.86473788E-001
9.86558802E-001
9.86501797E-001
9.86456405E-001
9.86626672E-001
9.86725809E-001
9.86835601E-001
9.97831611E-001
9.86965348E-001
9.90128768E-001
9.87105696E-001
9.92594720E-001
9.94578987E-001
9.87278662E-001
9.97260609E-001
9.87462329E-001
9.87671060E-001
9.96695127E-001
9.87891816E-001
9.91955920E-001
9.89326183E-001
9.96127537E-001
9.93515230E-001
9.88109391E-001
9.90328015E-001
1.00000000E+000
9.90818138E-001
9.88339432E-001
9.95566349E-001
9.91322062E-001
9.98902017E-001
9.95010267E-001
9.92441167E-001
9.85921694E-001
9.85871550E-001
9.86043162E-001
9.86252298E-001
9.88512159E-001
9.94453756E-001
9.97771422E-001
9.86534979E-001
9.86890525E-001
9.93913965E-001
9.87311508E-001
9.90123020E-001
9.88696565E-001
9.93373872E-001
9.96601199E-001
9.89655784E-001
9.91290743E-001
9.92829355E-001
9.90825111E-001
1.00000000E+000
9.87729185E-001
9.99440533E-001
9.95429797E-001
9.92286822E-001
9.98879368E-001
9.88830027E-001
9.98294273E-001
9.85297876E-001
9.85331172E-001
9.85384979E-001
9.94294600E-001
9.85275439E-001
9.85449245E-001
9.85548022E-001
9.85657812E-001
9.85799952E-001
9.91774051E-001
9.85952731E-001
9.86124694E-001
9.97714246E-001
9.89915958E-001
9.86307344E-001
9.86508624E-001
9.97112126E-001
9.90115555E-001
9.86720180E-001
9.88974103E-001
9.93183162E-001
9.88078931E-001
9.91264431E-001
9.96504870E-001
9.90319724E-001
9.86908606E-001
9.95894504E-001
9.90909860E-001
9.92099889E-001
1.00000000E+000
9.87108511E-001
9.90436246E-001
9.89506742E-001
9.95287633E-001
9.89029706E-001
9.94706878E-001
9.98845189E-001
9.87272549E-001
9.90556368E-001
9.94130948E-001
9.84728593E-001
9.84846195E-001
9.84668258E-001
9.85057129E-001
9.85351320E-001
9.93558023E-001
9.91096366E-001
9.85707578E-001
9.97644230E-001
9.88358652E-001
9.92991702E-001
9.89905503E-001
9.87448755E-001
9.86110860E-001
9.89093319E-001
9.92450280E-001
9.96386956E-001
9.91909965E-001
9.90339183E-001
9.86502673E-001
9.91415877E-001
9.87585195E-001
1.00000000E+000
9.89283102E-001
9.99406458E-001
9.95103014E-001
9.90926676E-001
9.98810292E-001
9.93907882E-001
9.90520974E-001
9.84115735E-001
9.84169175E-001
9.84078055E-001
9.89481095E-001
9.84333598E-001
9.84232474E-001
9.98192995E-001
9.84587708E-001
9.84445012E-001
9.84050146E-001
9.84740109E-001
9.89798391E-001
9.84912334E-001
9.87733187E-001
9.90119036E-001
9.85095900E-001
9.92759713E-001
9.86844708E-001
9.85287272E-001
9.97573472E-001
9.88542930E-001
9.85489865E-001
9.96922413E-001
9.91675942E-001
9.85681915E-001
9.96266433E-001
9.85886133E-001
9.87850696E-001
9.90685842E-001
1.00000000E+000
9.95590977E-001
9.86050715E-001
9.94914065E-001
9.94294498E-001
9.98782675E-001
9.89822319E-001
9.87129182E-001
9.93676443E-001
9.93097343E-001
9.83499501E-001
9.83621682E-001
9.83826210E-001
9.84118385E-001
9.92520528E-001
9.83421271E-001
9.86228400E-001
9.87981426E-001
9.84476786E-001
9.88937324E-001
9.91976761E-001
9.84876580E-001
9.91435585E-001
9.97507704E-001
9.90936204E-001
9.86365355E-001
9.90443425E-001
9.85265980E-001
9.89979793E-001
9.96148544E-001
9.88170225E-001
1.00000000E+000
9.89519863E-001
9.99374815E-001
9.86514742E-001
9.87362403E-001
9.98750622E-001
9.93410989E-001
9.88946389E-001
9.82932343E-001
9.92253569E-001
9.82873551E-001
9.83000777E-001
9.83093419E-001
9.85602716E-001
9.83336129E-001
9.83196400E-001
9.82822678E-001
9.83485338E-001
9.83661686E-001
9.82781790E-001
9.83847691E-001
9.94659929E-001
9.98095172E-001
9.91167046E-001
9.84044787E-001
9.84253074E-001
9.88376457E-001
9.86619448E-001
9.90177346E-001
9.97436433E-001
9.84439401E-001
9.89343891E-001
9.84635254E-001
9.96737238E-001
1.00000000E+000
9.84795723E-001
9.85899378E-001
9.86733047E-001
9.96029407E-001
9.91980340E-001
9.92557402E-001
9.84965756E-001
9.93141386E-001
9.98721797E-001
9.91432136E-001
9.82361004E-001
9.82226880E-001
9.95212715E-001
9.90890393E-001
9.82562392E-001
9.82848361E-001
9.90398178E-001
9.87611347E-001
9.83202950E-001
9.82131852E-001
9.89909594E-001
9.89536854E-001
9.89166092E-001
9.93763417E-001
9.83603523E-001
9.85113571E-001
9.86780953E-001
9.94396925E-001
9.97389149E-001
9.88217653E-001
9.83985143E-001
9.86142323E-001
9.85273870E-001
1.00000000E+000
9.95974659E-001
9.99350270E-001
9.92816396E-001
9.88620162E-001
9.91692257E-001
9.86837273E-001
9.84319318E-001
9.90582707E-001
9.85402498E-001
9.89545524E-001
9.81809534E-001
9.81710901E-001
9.81635695E-001
9.98692551E-001
9.81918376E-001
9.82054466E-001
9.93888981E-001
9.81569806E-001
9.82200349E-001
9.82369700E-001
9.81516299E-001
9.82548795E-001
9.81471722E-001
9.82741002E-001
9.82941826E-001
9.98014558E-001
9.83127607E-001
9.85541165E-001
9.94432628E-001
9.97335833E-001
9.83323642E-001
9.86307541E-001
9.84626410E-001
9.88062038E-001
9.96629982E-001
9.83488002E-001
9.85655093E-001
1.00000000E+000
9.93369902E-001
9.92928238E-001
9.88610568E-001
9.92486368E-001
9.91938093E-001
9.91397859E-001
9.86626504E-001
9.90829826E-001
9.89715622E-001
9.95920281E-001
9.90268164E-001
9.89170704E-001
9.83662914E-001
9.85775399E-001
9.81042802E-001
9.98667104E-001
9.81246559E-001
9.80900713E-001
9.81527682E-001
9.81875660E-001
9.80801469E-001
9.95200878E-001
9.87241272E-001
9.83810173E-001
9.82247603E-001
9.84935694E-001
9.94474007E-001
9.93292472E-001
9.97293965E-001
9.82617904E-001
9.83969436E-001
9.92277483E-001
1.00000000E+000
9.91139147E-001
9.86417715E-001
9.93846929E-001
9.89970890E-001
9.84137830E-001
9.99323925E-001
9.87618098E-001
9.85361536E-001
9.95859678E-001
9.82954173E-001
9.88812229E-001
9.80460156E-001
9.80365258E-001
9.80289028E-001
9.98640502E-001
9.80699254E-001
9.80564517E-001
9.80222109E-001
9.80843924E-001
9.81013440E-001
9.80167157E-001
9.81192361E-001
9.93214974E-001
9.80121399E-001
9.81361686E-001
9.84319008E-001
9.85678659E-001
9.97946881E-001
9.81540738E-001
9.92637736E-001
9.81715886E-001
9.94419343E-001
9.92061179E-001
9.97248368E-001
9.84622784E-001
9.81900989E-001
9.83255173E-001
9.91466108E-001
9.90874302E-001
9.96527246E-001
9.86117689E-001
1.00000000E+000
9.82061282E-001
9.90270594E-001
9.84938216E-001
9.89669349E-001
9.89052414E-001
9.95802253E-001
9.82232914E-001
9.88442865E-001
9.93104876E-001
9.87798404E-001
9.79667954E-001
9.79869178E-001
9.98610587E-001
9.79524936E-001
9.80144400E-001
9.80484638E-001
9.87166036E-001
9.79431698E-001
9.95085283E-001
9.83592169E-001
9.82374645E-001
9.80836947E-001
9.91876816E-001
9.84896833E-001
9.86487049E-001
9.94364924E-001
9.97193299E-001
9.81184936E-001
9.82528011E-001
9.90636877E-001
9.85814640E-001
9.93679968E-001
1.00000000E+000
9.85335923E-001
9.84148399E-001
9.89387233E-001
9.82685316E-001
9.99294984E-001
9.92989574E-001
9.95732471E-001
9.81490674E-001
9.84860029E-001
9.88102511E-001
9.79057878E-001
9.78960851E-001
9.78884940E-001
9.79163383E-001
9.98584918E-001
9.79294446E-001
9.92337094E-001
9.78818218E-001
9.79434652E-001
9.79596427E-001
9.78770855E-001
9.79766760E-001
9.78732543E-001
9.79940405E-001
9.82853487E-001
9.86735868E-001
9.80122694E-001
9.91685665E-001
9.97860907E-001
9.94278674E-001
9.80285112E-001
9.91036647E-001
9.97136708E-001
9.80457494E-001
9.83092113E-001
9.90393970E-001
9.81773879E-001
9.89742825E-001
9.85320042E-001
9.96400997E-001
1.00000000E+000
9.80592669E-001
9.84346624E-001
9.89099068E-001
9.92867710E-001
9.83341575E-001
9.95661898E-001
9.88423668E-001
9.80737338E-001
9.78254135E-001
9.78453765E-001
9.98560448E-001
9.78108579E-001
9.87751929E-001
9.78718876E-001
9.94923697E-001
9.78024216E-001
9.79035566E-001
9.83577884E-001
9.91512380E-001
9.87021374E-001
9.82080178E-001
9.80867144E-001
9.79373291E-001
9.94187777E-001
9.86298446E-001
9.97087672E-001
9.90182850E-001
9.85551383E-001
9.83824489E-001
9.93466442E-001
9.79691536E-001
9.81004869E-001
9.84313475E-001
1.00000000E+000
9.84813967E-001
9.92740520E-001
9.88838893E-001
9.99272504E-001
9.95593601E-001
9.82546824E-001
9.81143325E-001
9.92035370E-001
9.79958460E-001
9.77632025E-001
9.77538342E-001
9.77734712E-001
9.77459698E-001
9.98536107E-001
9.77860242E-001
9.77390482E-001
9.77994647E-001
9.77344118E-001
9.87418530E-001
9.78139640E-001
9.77306930E-001
9.91331978E-001
9.78294083E-001
9.78449352E-001
9.97791527E-001
9.81291551E-001
9.90648001E-001
9.94105485E-001
9.78613141E-001
9.78759487E-001
9.89967775E-001
9.97037848E-001
9.85840067E-001
9.83083060E-001
9.81507958E-001
9.89266354E-001
9.80211923E-001
9.78913347E-001
9.96282829E-001
1.00000000E+000
9.92627438E-001
9.88572845E-001
9.79036655E-001
9.95525044E-001
9.87820207E-001
9.81736884E-001
9.84075220E-001
9.76807310E-001
9.98511978E-001
9.77002112E-001
9.94775964E-001
9.79167262E-001
9.76658476E-001
9.77255793E-001
9.91188939E-001
9.76580927E-001
9.87074917E-001
9.77540089E-001
9.94021861E-001
9.82022674E-001
9.80485897E-001
9.86217382E-001
9.77839897E-001
9.79283127E-001
9.89778652E-001
9.96993069E-001
9.93266035E-001
9.85369541E-001
9.82323250E-001
1.00000000E+000
9.79407561E-001
9.78120308E-001
9.92509621E-001
9.88334744E-001
9.99244735E-001
9.91774056E-001
9.95466839E-001