# vtk DataFile Version 1.0
ECM-CELL DIFFUSION-MECHANICS
ASCII

DATASET UNSTRUCTURED_GRID
POINTS    13270 float
1.50000000E+001 3.00000000E+001 0.00000000E+000
1.47500000E+001 3.00000000E+001 0.00000000E+000
1.48210000E+001 2.98210000E+001 0.00000000E+000
1.45710000E+001 2.98210000E+001 0.00000000E+000
1.45000000E+001 3.00000000E+001 0.00000000E+000
1.46430000E+001 2.96430000E+001 0.00000000E+000
1.43350000E+001 2.98300000E+001 0.00000000E+000
1.44060000E+001 2.96520000E+001 0.00000000E+000
1.42500000E+001 3.00000000E+001 0.00000000E+000
1.44640000E+001 2.94640000E+001 0.00000000E+000
1.41690000E+001 2.96610000E+001 0.00000000E+000
1.40850000E+001 2.98300000E+001 0.00000000E+000
1.42280000E+001 2.94730000E+001 0.00000000E+000
1.40000000E+001 3.00000000E+001 0.00000000E+000
1.42860000E+001 2.92860000E+001 0.00000000E+000
1.39900000E+001 2.95890000E+001 0.00000000E+000
1.39050000E+001 2.97580000E+001 0.00000000E+000
1.40480000E+001 2.94010000E+001 0.00000000E+000
1.37500000E+001 3.00000000E+001 0.00000000E+000
1.41070000E+001 2.91070000E+001 0.00000000E+000
1.38110000E+001 2.95170000E+001 0.00000000E+000
1.36550000E+001 2.97580000E+001 0.00000000E+000
1.38700000E+001 2.92230000E+001 0.00000000E+000
1.36760000E+001 2.93450000E+001 0.00000000E+000
1.35000000E+001 3.00000000E+001 0.00000000E+000
1.39290000E+001 2.89290000E+001 0.00000000E+000
1.35300000E+001 2.95420000E+001 0.00000000E+000
1.37350000E+001 2.90510000E+001 0.00000000E+000
1.33750000E+001 2.97830000E+001 0.00000000E+000
1.35410000E+001 2.91740000E+001 0.00000000E+000
1.33950000E+001 2.93710000E+001 0.00000000E+000
1.32500000E+001 3.00000000E+001 0.00000000E+000
1.37500000E+001 2.87500000E+001 0.00000000E+000
1.32500000E+001 2.95670000E+001 0.00000000E+000
1.35560000E+001 2.88730000E+001 0.00000000E+000
1.31250000E+001 2.97830000E+001 0.00000000E+000
1.33000000E+001 2.91470000E+001 0.00000000E+000
1.31550000E+001 2.93430000E+001 0.00000000E+000
1.30000000E+001 3.00000000E+001 0.00000000E+000
1.35710000E+001 2.85710000E+001 0.00000000E+000
1.33160000E+001 2.88450000E+001 0.00000000E+000
1.30000000E+001 2.95670000E+001 0.00000000E+000
1.30600000E+001 2.91190000E+001 0.00000000E+000
1.28750000E+001 2.97830000E+001 0.00000000E+000
1.29050000E+001 2.93430000E+001 0.00000000E+000
1.27500000E+001 3.00000000E+001 0.00000000E+000
1.32100000E+001 2.86200000E+001 0.00000000E+000
1.33930000E+001 2.83930000E+001 0.00000000E+000
1.27500000E+001 2.95670000E+001 0.00000000E+000
1.29550000E+001 2.88940000E+001 0.00000000E+000
1.26250000E+001 2.97830000E+001 0.00000000E+000
1.27800000E+001 2.91270000E+001 0.00000000E+000
1.26250000E+001 2.93500000E+001 0.00000000E+000
1.25000000E+001 3.00000000E+001 0.00000000E+000
1.30320000E+001 2.84410000E+001 0.00000000E+000
1.32140000E+001 2.82140000E+001 0.00000000E+000
1.28490000E+001 2.86680000E+001 0.00000000E+000
1.25000000E+001 2.95670000E+001 0.00000000E+000
1.26750000E+001 2.89010000E+001 0.00000000E+000
1.23750000E+001 2.97830000E+001 0.00000000E+000
1.25000000E+001 2.91340000E+001 0.00000000E+000
1.23750000E+001 2.93500000E+001 0.00000000E+000
1.22500000E+001 3.00000000E+001 0.00000000E+000
1.28570000E+001 2.82410000E+001 0.00000000E+000
1.30360000E+001 2.80360000E+001 0.00000000E+000
1.25500000E+001 2.86840000E+001 0.00000000E+000
1.22500000E+001 2.95670000E+001 0.00000000E+000
1.26750000E+001 2.84680000E+001 0.00000000E+000
1.23750000E+001 2.89170000E+001 0.00000000E+000
1.21250000E+001 2.97830000E+001 0.00000000E+000
1.22500000E+001 2.91340000E+001 0.00000000E+000
1.21250000E+001 2.93500000E+001 0.00000000E+000
1.20000000E+001 3.00000000E+001 0.00000000E+000
1.26790000E+001 2.80630000E+001 0.00000000E+000
1.28570000E+001 2.78570000E+001 0.00000000E+000
1.23750000E+001 2.84840000E+001 0.00000000E+000
1.20000000E+001 2.95670000E+001 0.00000000E+000
1.25000000E+001 2.82680000E+001 0.00000000E+000
1.22500000E+001 2.87010000E+001 0.00000000E+000
1.21250000E+001 2.89170000E+001 0.00000000E+000
1.20000000E+001 2.91340000E+001 0.00000000E+000
1.18750000E+001 2.97830000E+001 0.00000000E+000
1.18750000E+001 2.93500000E+001 0.00000000E+000
1.17500000E+001 3.00000000E+001 0.00000000E+000
1.21250000E+001 2.84840000E+001 0.00000000E+000
1.22500000E+001 2.82680000E+001 0.00000000E+000
1.25540000E+001 2.78460000E+001 0.00000000E+000
1.20000000E+001 2.87010000E+001 0.00000000E+000
1.23750000E+001 2.80510000E+001 0.00000000E+000
1.17500000E+001 2.95670000E+001 0.00000000E+000
1.26790000E+001 2.76790000E+001 0.00000000E+000
1.18750000E+001 2.89170000E+001 0.00000000E+000
1.17500000E+001 2.91340000E+001 0.00000000E+000
1.16250000E+001 2.97830000E+001 0.00000000E+000
1.16250000E+001 2.93500000E+001 0.00000000E+000
1.20000000E+001 2.82680000E+001 0.00000000E+000
1.18750000E+001 2.84840000E+001 0.00000000E+000
1.21250000E+001 2.80510000E+001 0.00000000E+000
1.15000000E+001 3.00000000E+001 0.00000000E+000
1.17500000E+001 2.87010000E+001 0.00000000E+000
1.22500000E+001 2.78350000E+001 0.00000000E+000
1.23750000E+001 2.76670000E+001 0.00000000E+000
1.15000000E+001 2.95670000E+001 0.00000000E+000
1.25000000E+001 2.75000000E+001 0.00000000E+000
1.16250000E+001 2.89170000E+001 0.00000000E+000
1.15000000E+001 2.91340000E+001 0.00000000E+000
1.13750000E+001 2.97830000E+001 0.00000000E+000
1.17500000E+001 2.82680000E+001 0.00000000E+000
1.13750000E+001 2.93500000E+001 0.00000000E+000
1.18870000E+001 2.80300000E+001 0.00000000E+000
1.16250000E+001 2.84840000E+001 0.00000000E+000
1.20120000E+001 2.78130000E+001 0.00000000E+000
1.15000000E+001 2.87010000E+001 0.00000000E+000
1.12500000E+001 3.00000000E+001 0.00000000E+000
1.21960000E+001 2.74890000E+001 0.00000000E+000
1.12500000E+001 2.95670000E+001 0.00000000E+000
1.13750000E+001 2.89170000E+001 0.00000000E+000
1.23210000E+001 2.73210000E+001 0.00000000E+000
1.12500000E+001 2.91340000E+001 0.00000000E+000
1.11250000E+001 2.97830000E+001 0.00000000E+000
1.16370000E+001 2.80300000E+001 0.00000000E+000
1.15000000E+001 2.82680000E+001 0.00000000E+000
1.17740000E+001 2.77920000E+001 0.00000000E+000
1.13750000E+001 2.84840000E+001 0.00000000E+000
1.11250000E+001 2.93500000E+001 0.00000000E+000
1.19580000E+001 2.74670000E+001 0.00000000E+000
1.12500000E+001 2.87010000E+001 0.00000000E+000
1.10000000E+001 3.00000000E+001 0.00000000E+000
1.10000000E+001 2.95670000E+001 0.00000000E+000
1.11250000E+001 2.89170000E+001 0.00000000E+000
1.21430000E+001 2.71430000E+001 0.00000000E+000
1.10000000E+001 2.91340000E+001 0.00000000E+000
1.13750000E+001 2.80510000E+001 0.00000000E+000
1.15120000E+001 2.78130000E+001 0.00000000E+000
1.08750000E+001 2.97830000E+001 0.00000000E+000
1.12500000E+001 2.82680000E+001 0.00000000E+000
1.16540000E+001 2.75560000E+001 0.00000000E+000
1.11250000E+001 2.84840000E+001 0.00000000E+000
1.08750000E+001 2.93500000E+001 0.00000000E+000
1.18380000E+001 2.72320000E+001 0.00000000E+000
1.10000000E+001 2.87010000E+001 0.00000000E+000
1.07500000E+001 3.00000000E+001 0.00000000E+000
1.08750000E+001 2.89170000E+001 0.00000000E+000
1.07500000E+001 2.95670000E+001 0.00000000E+000
1.19640000E+001 2.69640000E+001 0.00000000E+000
1.12500000E+001 2.78350000E+001 0.00000000E+000
1.07500000E+001 2.91340000E+001 0.00000000E+000
1.11250000E+001 2.80510000E+001 0.00000000E+000
1.13920000E+001 2.75780000E+001 0.00000000E+000
1.10000000E+001 2.82680000E+001 0.00000000E+000
1.06250000E+001 2.97830000E+001 0.00000000E+000
1.15340000E+001 2.73210000E+001 0.00000000E+000
1.08750000E+001 2.84840000E+001 0.00000000E+000
1.06250000E+001 2.93500000E+001 0.00000000E+000
1.07500000E+001 2.87010000E+001 0.00000000E+000
1.16600000E+001 2.70530000E+001 0.00000000E+000
1.05000000E+001 3.00000000E+001 0.00000000E+000
1.06250000E+001 2.89170000E+001 0.00000000E+000
1.05000000E+001 2.95670000E+001 0.00000000E+000
1.17860000E+001 2.67860000E+001 0.00000000E+000
1.11250000E+001 2.76180000E+001 0.00000000E+000
1.10000000E+001 2.78350000E+001 0.00000000E+000
1.08750000E+001 2.80510000E+001 0.00000000E+000
1.12670000E+001 2.73610000E+001 0.00000000E+000
1.05000000E+001 2.91340000E+001 0.00000000E+000
1.07500000E+001 2.82680000E+001 0.00000000E+000
1.13920000E+001 2.71450000E+001 0.00000000E+000
1.06250000E+001 2.84840000E+001 0.00000000E+000
1.03750000E+001 2.97830000E+001 0.00000000E+000
1.03750000E+001 2.93500000E+001 0.00000000E+000
1.15180000E+001 2.68770000E+001 0.00000000E+000
1.05000000E+001 2.87010000E+001 0.00000000E+000
1.02500000E+001 3.00000000E+001 0.00000000E+000
1.03750000E+001 2.89170000E+001 0.00000000E+000
1.08750000E+001 2.76180000E+001 0.00000000E+000
1.02500000E+001 2.95670000E+001 0.00000000E+000
1.10000000E+001 2.74020000E+001 0.00000000E+000
1.07500000E+001 2.78350000E+001 0.00000000E+000
1.11250000E+001 2.71850000E+001 0.00000000E+000
1.06250000E+001 2.80510000E+001 0.00000000E+000
1.16070000E+001 2.66070000E+001 0.00000000E+000
1.12500000E+001 2.69690000E+001 0.00000000E+000
1.05000000E+001 2.82680000E+001 0.00000000E+000
1.02500000E+001 2.91340000E+001 0.00000000E+000
1.03750000E+001 2.84840000E+001 0.00000000E+000
1.01250000E+001 2.97830000E+001 0.00000000E+000
1.01250000E+001 2.93500000E+001 0.00000000E+000
1.02500000E+001 2.87010000E+001 0.00000000E+000
1.13390000E+001 2.66990000E+001 0.00000000E+000
1.07500000E+001 2.74020000E+001 0.00000000E+000
1.06250000E+001 2.76180000E+001 0.00000000E+000
1.08750000E+001 2.71850000E+001 0.00000000E+000
1.01250000E+001 2.89170000E+001 0.00000000E+000
1.05000000E+001 2.78350000E+001 0.00000000E+000
1.00000000E+001 3.00000000E+001 0.00000000E+000
1.10000000E+001 2.69690000E+001 0.00000000E+000
1.00000000E+001 2.95670000E+001 0.00000000E+000
1.03750000E+001 2.80510000E+001 0.00000000E+000
1.11300000E+001 2.67810000E+001 0.00000000E+000
1.14290000E+001 2.64290000E+001 0.00000000E+000
1.02500000E+001 2.82680000E+001 0.00000000E+000
1.00000000E+001 2.91340000E+001 0.00000000E+000
1.01250000E+001 2.84840000E+001 0.00000000E+000
9.87500000E+000 2.97830000E+001 0.00000000E+000
1.12200000E+001 2.65110000E+001 0.00000000E+000
9.87500000E+000 2.93500000E+001 0.00000000E+000
[...]
POINT_DATA    13270
SCALARS Ux float
LOOKUP_TABLE default
1.00000000E+000
9.99979367E-001
1.00000000E+000
9.99934246E-001
9.99896407E-001
1.00000000E+000
9.99830227E-001
9.99909525E-001
9.99773490E-001
1.00000000E+000
9.99763304E-001
9.99664904E-001
9.99865620E-001
9.99588430E-001
1.00000000E+000
9.99653753E-001
9.99527688E-001
9.99778433E-001
9.99364927E-001
1.00000000E+000
9.99515937E-001
9.99278602E-001
9.99717826E-001
9.99455198E-001
9.99076285E-001
1.00000000E+000
9.99204746E-001
9.99714483E-001
9.98931136E-001
9.99406584E-001
9.99103296E-001
9.98747003E-001
1.00000000E+000
9.98818168E-001
9.99656919E-001
9.98571596E-001
9.99118235E-001
9.98774764E-001
9.98355712E-001
1.00000000E+000
9.99381732E-001
9.98438652E-001
9.98772013E-001
9.98160104E-001
9.98371124E-001
9.97924375E-001
9.99474349E-001
1.00000000E+000
9.97995886E-001
9.98777424E-001
9.97697541E-001
9.98292930E-001
9.97850994E-001
9.97430303E-001
9.99404556E-001
1.00000000E+000
9.98824668E-001
9.97512662E-001
9.98270526E-001
9.97183238E-001
9.97737240E-001
9.97336922E-001
9.96896360E-001
9.99390707E-001
1.00000000E+000
9.98248546E-001
9.96967268E-001
9.98739438E-001
9.97643453E-001
9.96618335E-001
9.97202628E-001
9.96771192E-001
9.96300103E-001
9.99325215E-001
1.00000000E+000
9.98105013E-001
9.96382052E-001
9.98660160E-001
9.97580063E-001
9.97077790E-001
9.96605725E-001
9.96001897E-001
9.96154885E-001
9.95664159E-001
9.97538310E-001
9.98124809E-001
9.99452277E-001
9.96994214E-001
9.98721817E-001
9.95734682E-001
1.00000000E+000
9.96460346E-001
9.95968880E-001
9.95335212E-001
9.95487097E-001
9.97526319E-001
9.96920309E-001
9.98154579E-001
9.94966281E-001
9.96345140E-001
9.98813790E-001
9.99400201E-001
9.95047639E-001
1.00000000E+000
9.95792015E-001
9.95269770E-001
9.94617233E-001
9.96887342E-001
9.94768987E-001
9.97598968E-001
9.96250147E-001
9.98295940E-001
9.95655792E-001
9.94229011E-001
9.99348229E-001
9.94298874E-001
9.95072111E-001
1.00000000E+000
9.94530943E-001
9.93849496E-001
9.96929753E-001
9.96184540E-001
9.97715124E-001
9.95528516E-001
9.93999777E-001
9.98821229E-001
9.94903864E-001
9.93430393E-001
9.93510793E-001
9.94301574E-001
1.00000000E+000
9.93730357E-001
9.96138903E-001
9.96953775E-001
9.93030938E-001
9.95441266E-001
9.97833460E-001
9.94755240E-001
9.93180726E-001
9.99039463E-001
9.94112069E-001
9.92592849E-001
9.93480037E-001
9.92661700E-001
1.00000000E+000
9.96122127E-001
9.92890473E-001
9.95362783E-001
9.97033850E-001
9.94635151E-001
9.92163341E-001
9.97993886E-001
9.93930863E-001
9.92311229E-001
9.93258285E-001
9.98970094E-001
9.91694854E-001
9.92608330E-001
9.91773848E-001
1.00000000E+000
9.96125807E-001
9.95324011E-001
9.94534712E-001
9.97113078E-001
9.91989636E-001
9.93788872E-001
9.97977164E-001
9.93055430E-001
9.91245670E-001
9.91392609E-001
9.99019383E-001
9.92365050E-001
9.90758615E-001
9.91686422E-001
9.95294068E-001
9.90826030E-001
9.96158417E-001
9.94462158E-001
9.97048375E-001
9.93654764E-001
1.00000000E+000
9.97970165E-001
9.92880038E-001
9.91050114E-001
9.92129190E-001
9.90279960E-001
9.90424508E-001
9.91410634E-001
9.98950010E-001
9.95304043E-001
9.94409438E-001
9.96212564E-001
9.90714996E-001
9.93559465E-001
9.89763195E-001
9.97165622E-001
9.89840244E-001
9.92723370E-001
9.98071971E-001
1.00000000E+000
9.91931356E-001
9.90050792E-001
9.91152781E-001
9.89265256E-001
9.99119514E-001
9.89408284E-001
9.90417397E-001
9.94384115E-001
9.95322714E-001
9.93471561E-001
9.96295145E-001
9.92593119E-001
9.97235038E-001
9.89694528E-001
9.98197139E-001
9.88730476E-001
9.91740102E-001
9.88795945E-001
9.90920854E-001
1.00000000E+000
9.89013656E-001
9.90126067E-001
9.88203850E-001
9.99058853E-001
9.89364180E-001
9.94378809E-001
9.93422299E-001
9.88343923E-001
9.95381537E-001
9.92481453E-001
9.96503716E-001
9.97504016E-001
9.91586208E-001
9.88625480E-001
9.90706392E-001
9.87640291E-001
9.87714755E-001
9.89871124E-001
1.00000000E+000
9.87918316E-001
9.89050525E-001
9.98379562E-001
9.93379794E-001
9.87094925E-001
9.95559714E-001
9.94400505E-001
9.92395194E-001
9.96750815E-001
9.91437895E-001
9.88273064E-001
9.87232787E-001
9.90516339E-001
9.89621118E-001
9.87508992E-001
9.86514064E-001
9.88760796E-001
9.86576991E-001
9.98733195E-001
1.00000000E+000
9.86786344E-001
9.87925500E-001
9.93375920E-001
9.92327414E-001
9.97020419E-001
9.94442015E-001
9.91326481E-001
9.95673525E-001
9.90343272E-001
9.85941037E-001
9.87123673E-001
9.86075310E-001
9.89406510E-001
9.88486934E-001
9.86345230E-001
9.85332609E-001
9.87612193E-001
9.85403749E-001
9.98660388E-001
9.97329042E-001
1.00000000E+000
9.85598298E-001
9.92284108E-001
9.95909860E-001
9.93378118E-001
9.91219510E-001
9.86753504E-001
9.94510208E-001
9.90193115E-001
9.89195285E-001
9.84741561E-001
9.85937652E-001
9.88234938E-001
9.84872821E-001
9.87301843E-001
9.85136143E-001
9.86404777E-001
9.84116725E-001
9.84176434E-001
9.92259298E-001
9.91149264E-001
9.93419411E-001
9.90059491E-001
9.96075451E-001
9.98939669E-001
9.97533379E-001
9.94598928E-001
9.84375171E-001
9.89018670E-001
9.85533244E-001
1.00000000E+000
9.87997937E-001
9.83499320E-001
9.87024366E-001
9.84695652E-001
9.83626300E-001
9.86069959E-001
9.83881529E-001
9.85160427E-001
9.91082271E-001
9.92258406E-001
9.82848447E-001
9.89947373E-001
9.93466468E-001
9.82915436E-001
9.88843677E-001
9.94715450E-001
9.87780702E-001
9.96229513E-001
9.97767082E-001
9.84268456E-001
9.98880290E-001
9.83098710E-001
1.00000000E+000
9.86747646E-001
9.85753880E-001
9.82213937E-001
9.83418697E-001
9.82337008E-001
9.84788248E-001
9.91052297E-001
9.89851434E-001
9.82584281E-001
9.92276347E-001
9.88702793E-001
9.83859706E-001
9.93553926E-001
9.87577574E-001
9.81547750E-001
9.81603496E-001
9.94853675E-001
9.86502584E-001
9.96450509E-001
9.82957097E-001
9.81789132E-001
9.85450372E-001
9.98819587E-001
1.00000000E+000
9.84445792E-001
9.82088729E-001
9.80888500E-001
9.81006554E-001
9.83462533E-001
9.89775762E-001
9.91024297E-001
9.88561564E-001
9.92317930E-001
9.87392112E-001
9.81243758E-001
9.93646462E-001
9.86255763E-001
9.82523846E-001
9.95018986E-001
9.80198145E-001
9.85162774E-001
9.80260092E-001
9.97472757E-001
9.84101042E-001
9.81604301E-001
9.80429638E-001
1.00000000E+000
9.83080368E-001
9.80725938E-001
9.79522922E-001
9.89716013E-001
9.88454315E-001
9.82088600E-001
9.91034076E-001
9.79636101E-001
9.87219871E-001
9.92378677E-001
9.86039610E-001
9.93780975E-001
9.84886317E-001
9.79863912E-001
9.81134812E-001
9.95492124E-001
9.83784253E-001
9.78818566E-001
9.98088008E-001
9.78869558E-001
9.82707895E-001
9.80207185E-001
9.79039442E-001
1.00000000E+000
9.81679259E-001
9.88344577E-001
9.89675392E-001
9.87063187E-001
9.79313844E-001
9.91044432E-001
9.78120553E-001
9.85818834E-001
9.80674195E-001
9.92463166E-001
9.84622829E-001
9.78227955E-001
9.94216975E-001
9.83461792E-001
9.78443616E-001
9.79712946E-001
9.96030683E-001
9.82346749E-001
9.77394257E-001
9.97983242E-001
9.77450227E-001
9.81264190E-001
9.78772416E-001
9.77603475E-001
9.80224270E-001
1.00000000E+000
9.88269137E-001
9.86919041E-001
9.89650752E-001
9.85628015E-001
9.91093775E-001
9.84368961E-001
9.77871550E-001
9.92566872E-001
9.76681631E-001
9.79213818E-001
9.83165685E-001
9.76783156E-001
9.94416346E-001
9.81993210E-001
9.78241939E-001
9.95988518E-001
9.80872581E-001
9.76987952E-001
9.75942869E-001
9.79780723E-001
9.98039735E-001
9.75988293E-001
9.77296205E-001
9.86789502E-001
9.88188319E-001
9.85428965E-001
9.76139699E-001
9.78736110E-001
9.89644923E-001
9.84125018E-001
1.00000000E+000
9.91141795E-001
9.82860100E-001
9.92696609E-001
9.76384456E-001
9.81646975E-001
9.77717285E-001
9.75209755E-001
9.94295351E-001
9.80470882E-001
9.75304744E-001
9.95945038E-001
9.79343241E-001
9.76740959E-001
9.75495277E-001
9.78248972E-001
9.74451642E-001
9.97933364E-001
9.74500692E-001
9.75786834E-001
9.85434675E-001
9.84046803E-001
9.82579966E-001
9.74635049E-001
9.77198487E-001
9.81306081E-001
1.00000000E+000
9.86596959E-001
9.92851322E-001
9.80090021E-001
9.88094148E-001
9.74870303E-001
9.89640584E-001
9.76177741E-001
9.94534442E-001
9.73705507E-001
9.78909327E-001
9.91249055E-001
9.73793621E-001
9.96027831E-001
9.77780077E-001
9.75195751E-001
9.73971838E-001
9.76682395E-001
9.98122014E-001
9.72936685E-001
9.82439011E-001
9.83998746E-001
9.72975738E-001
9.80968487E-001
9.74239582E-001
9.75630833E-001
9.79693143E-001
9.73105967E-001
9.85164901E-001
9.93029738E-001
9.78476244E-001
1.00000000E+000
9.73316663E-001
9.74607142E-001
9.94551323E-001
9.91343085E-001
9.77296632E-001
9.86417093E-001
9.72172718E-001
9.88004624E-001
9.72253569E-001
9.96120911E-001
9.89666828E-001
9.76166648E-001
9.73624000E-001
9.82440025E-001
9.80889595E-001
9.72415467E-001
9.75070591E-001
9.98015727E-001
9.83387489E-001
9.71387484E-001
9.92597820E-001
9.71428704E-001
9.72664359E-001
9.74019107E-001
9.79306905E-001
9.71541659E-001
9.94172241E-001
9.90853759E-001
9.84608594E-001
9.76828616E-001
9.78013327E-001
1.00000000E+000
9.71739626E-001
9.72997262E-001
9.75650084E-001
9.85898387E-001
9.80829037E-001
9.70612315E-001
9.87563140E-001
9.95819118E-001
9.70685343E-001
9.74522663E-001
9.72013834E-001
9.81753464E-001
9.92143163E-001
9.70833558E-001
9.73429756E-001
9.88999731E-001
9.79174000E-001
9.97805369E-001
9.82744273E-001
9.69818344E-001
9.71055528E-001
9.69850266E-001
9.72381132E-001
9.93762400E-001
9.75127576E-001
9.83999112E-001
9.69956768E-001
9.76291460E-001
9.77554472E-001
9.73955133E-001
1.00000000E+000
9.71362200E-001
9.70129219E-001
9.90245144E-001
9.85345491E-001
9.79895698E-001
9.69028338E-001
9.95488038E-001
9.72834365E-001
9.69093439E-001
9.80845330E-001
9.70381134E-001
9.86755551E-001
9.91853002E-001
9.69223436E-001
9.71747703E-001
9.78181831E-001
9.82078363E-001
9.74598957E-001
9.97683857E-001
9.75814714E-001
9.68221216E-001
9.69424568E-001
9.88269663E-001
9.68253769E-001
9.70705540E-001
9.73395235E-001
9.93566783E-001
9.83384789E-001
9.68343011E-001
9.72233406E-001
9.69692422E-001
1.00000000E+000
9.89852335E-001
9.68499575E-001
9.84772253E-001
9.78905066E-001
9.76452514E-001
9.67422042E-001
9.71120035E-001
9.95353775E-001
9.67478468E-001
9.80089624E-001
9.68716713E-001
9.86247154E-001
9.74057529E-001
9.91545817E-001
9.67593567E-001
9.70043342E-001
9.81366295E-001
9.72808159E-001
9.97673906E-001
9.66608344E-001
9.67764990E-001
9.87808435E-001
9.69008148E-001
9.77093291E-001
9.66632458E-001
9.71619334E-001
9.82706028E-001
9.93314606E-001
9.66712956E-001
9.74626093E-001
9.70468132E-001
9.68004027E-001
9.89471757E-001
9.66843423E-001
9.78091207E-001
9.84155691E-001
1.00000000E+000
9.69368633E-001
9.65797640E-001
9.95202241E-001
9.79317682E-001
9.65845571E-001
9.67034311E-001
9.75274804E-001
9.85673028E-001
9.68302722E-001
9.91223593E-001
9.65940812E-001
9.80625315E-001
9.71892190E-001
9.97530876E-001
9.76202767E-001
9.70661333E-001
9.66089688E-001
9.69816972E-001
9.87309669E-001
9.64974333E-001
9.67280566E-001
9.64997497E-001
9.82019098E-001
9.93091682E-001
9.72529333E-001
9.65061035E-001
9.68683362E-001
9.66286304E-001
9.77225442E-001
9.89025288E-001
9.83503779E-001
9.65172645E-001
1.00000000E+000
9.67595986E-001
9.64156680E-001
9.95049666E-001
9.78474917E-001
9.64195229E-001
9.73102456E-001
9.65327684E-001
9.85091036E-001
9.66547245E-001
9.90872775E-001
9.74161116E-001
9.64274568E-001
9.79829497E-001
9.68789735E-001
9.69656416E-001
9.67976887E-001
9.97518790E-001
9.64391431E-001
9.65536250E-001
9.86782569E-001
9.63329120E-001
9.81255147E-001
9.63344867E-001
9.75108435E-001
9.92807088E-001
9.63397477E-001
9.66860177E-001
9.70233472E-001
9.76320671E-001
9.64557106E-001
9.82802761E-001
9.88586973E-001
9.63482866E-001
9.65794746E-001
1.00000000E+000
9.77608321E-001
9.62503515E-001
9.94883629E-001
9.70876070E-001
9.62533123E-001
9.63608103E-001
9.84433873E-001
9.67240057E-001
9.68070319E-001
9.64761520E-001
9.71877112E-001
9.90500315E-001
9.78993328E-001
9.62591309E-001
9.72960460E-001
9.66116351E-001
9.63770082E-001
9.97356216E-001
9.62684286E-001
9.86200969E-001
9.61670109E-001
9.80471811E-001
9.74102905E-001
9.61683314E-001
9.68258271E-001
9.92547804E-001
9.65026566E-001
9.61719578E-001
9.75343226E-001
9.62804737E-001
9.82060738E-001
9.88063706E-001
9.61783443E-001
9.68828180E-001
9.63978191E-001
9.66475187E-001
1.00000000E+000
9.76656538E-001
9.69788310E-001
9.60839925E-001
9.94706229E-001
9.60859623E-001
9.65325924E-001
9.61872446E-001
9.70801725E-001
9.83762473E-001
9.62969004E-001
9.90087459E-001
9.78084150E-001
9.60901168E-001
9.66612618E-001
9.71898191E-001
9.64229150E-001
9.61992753E-001
9.97338097E-001
9.60960430E-001
9.85586613E-001
9.73060756E-001
9.79594154E-001
9.60004713E-001
9.60011676E-001
9.63162115E-001
9.92212110E-001
9.60035000E-001
9.66772548E-001
9.74320278E-001
9.61048389E-001
9.67664835E-001
9.81244811E-001
9.87546153E-001
9.60073026E-001
9.62142632E-001
9.68630912E-001
9.64757384E-001
9.75665165E-001
1.00000000E+000
9.59170363E-001
9.94507780E-001
9.69648364E-001
9.59180819E-001
9.60129215E-001
9.82992330E-001
9.61153109E-001
9.63615925E-001
9.77120091E-001
9.89638762E-001
9.70757381E-001
9.59200324E-001
9.64847099E-001
9.62330655E-001
9.60202499E-001
9.71929162E-001
9.84903535E-001
9.59234793E-001
9.78684482E-001
9.97154271E-001
9.58333221E-001
9.58336079E-001
9.61296158E-001
9.65564714E-001
9.91893697E-001
9.73211950E-001
9.58343996E-001
9.66454983E-001
9.59275630E-001
9.80376641E-001
9.60297814E-001
9.86927014E-001
9.67423243E-001
9.58358216E-001
9.74571308E-001
1.00000000E+000
9.62970030E-001
9.68444534E-001
9.57496775E-001
9.94294193E-001
9.58378513E-001
9.61641581E-001
9.82197760E-001
9.57496997E-001
9.59338579E-001
9.76065434E-001
9.69560311E-001
9.89141897E-001
9.63591466E-001
9.57499418E-001
9.60415040E-001
9.70744172E-001
9.58406918E-001
9.84168206E-001
9.77653178E-001
9.57499143E-001
9.97125076E-001
9.64284090E-001
9.56660350E-001
9.59406490E-001
9.56658277E-001
9.91486177E-001
9.72039167E-001
9.65167387E-001
9.56651471E-001
9.57506558E-001
9.79404596E-001
9.66129245E-001
9.58443550E-001
9.86301352E-001
9.56640754E-001
9.73423905E-001
9.67146822E-001
1.00000000E+000
9.60674085E-001
9.94042946E-001
9.55823665E-001
9.61525085E-001
9.56625853E-001
9.57508050E-001
9.81274678E-001
9.55814501E-001
9.59431078E-001
9.68264576E-001
9.74941028E-001
9.88601090E-001
9.55794442E-001
9.58491659E-001
9.62118034E-001
9.69450327E-001
9.56607749E-001
9.62949420E-001
9.76573570E-001
9.83338950E-001
9.55768936E-001
9.57524094E-001
9.96895515E-001
9.54989308E-001
9.63819460E-001
9.54981626E-001
9.70756497E-001
9.91100655E-001
9.54960667E-001
9.64776082E-001
9.55728303E-001
9.78364456E-001
9.56586536E-001
9.85540021E-001
9.54924309E-001
9.72150112E-001
9.65784018E-001
1.00000000E+000
9.58383883E-001
9.54153073E-001
9.59141874E-001
9.93847824E-001
9.55687235E-001
9.54874605E-001
9.80305094E-001
9.57443076E-001
9.66897314E-001
9.54133567E-001
9.73694542E-001
9.59970273E-001
9.87981572E-001
9.56563235E-001
9.60715574E-001
9.54096292E-001
9.68080255E-001
9.61525402E-001
9.54809335E-001
9.75348485E-001
9.82432373E-001
9.54035729E-001
9.55626413E-001
9.62381307E-001
9.96932619E-001
9.53321986E-001
9.69394205E-001
9.53310797E-001
9.90656096E-001
9.63317466E-001
9.53273596E-001
9.53961415E-001
9.77192083E-001
9.54730421E-001
9.84759171E-001
9.70795905E-001
9.53213715E-001
9.64312999E-001
9.56502926E-001
9.57104546E-001
9.55625632E-001
9.57839878E-001
1.00000000E+000
9.65410904E-001
9.52489506E-001
9.53858390E-001
9.58531158E-001
9.93620925E-001
9.53127128E-001
9.79173546E-001
9.72358951E-001
9.52460629E-001
9.59247411E-001
9.54635134E-001
9.87336569E-001
9.52400890E-001
9.66584764E-001
9.60040730E-001
9.53016892E-001
9.74041862E-001
9.81394870E-001
9.60865913E-001
9.52315142E-001
9.53745390E-001
9.67887268E-001
9.96660231E-001
9.51664487E-001
9.51646272E-001
9.61786927E-001
9.90204179E-001
9.51596463E-001
9.52192878E-001
9.75920691E-001
9.52878285E-001
9.54625522E-001
9.55165234E-001
9.69286828E-001
9.62754313E-001
9.55740670E-001
9.83826794E-001
9.51509592E-001
9.56345699E-001
9.53640181E-001
9.57004192E-001
9.63837970E-001
1.00000000E+000
9.52047435E-001
9.50835018E-001
9.77966820E-001
9.51390011E-001
9.93216256E-001
9.70855996E-001
9.57694307E-001
9.50795906E-001
9.52714252E-001
9.86569215E-001
9.58448053E-001
9.64987846E-001
9.50719132E-001
9.51231317E-001
9.59246680E-001
9.72550854E-001
9.51858074E-001
9.80254623E-001
9.50598723E-001
9.66282006E-001
9.96515262E-001
9.50015804E-001
9.60128519E-001
9.49995590E-001
9.53168583E-001
9.89455457E-001
9.53669765E-001
9.52553443E-001
9.49928308E-001
9.50443186E-001
9.51037356E-001
9.74465586E-001
9.61068206E-001
9.67667990E-001
9.82814990E-001
9.49819797E-001
9.51647547E-001
9.55414483E-001
9.53525240E-001
9.62114721E-001
9.56057791E-001
9.50236643E-001
1.00000000E+000
9.54058177E-001
9.76540694E-001
9.69235898E-001
9.49194074E-001
9.49662365E-001
9.92715844E-001
9.49145761E-001
9.50800227E-001
9.56781307E-001
9.85632509E-001
9.63236501E-001
9.49046978E-001
9.57531552E-001
9.49461182E-001
9.70935397E-001
9.49995866E-001
9.78915872E-001
9.48901893E-001
9.64498003E-001
9.51639239E-001
9.58380519E-001
9.51064829E-001
9.96146409E-001
9.48384858E-001
9.48356311E-001
9.50521891E-001
9.88737788E-001
9.48278213E-001
9.48699480E-001
9.49206890E-001
9.72867091E-001
9.59269891E-001
9.65859217E-001
9.81506869E-001
9.51435563E-001
9.53718754E-001
9.48141851E-001
9.49693421E-001
9.60285531E-001
9.54325850E-001
9.52404808E-001
9.48451510E-001
9.67404514E-001
1.00000000E+000
9.74990962E-001
9.47953879E-001
9.47568669E-001
9.92206228E-001
9.54991135E-001
9.48903868E-001
9.51214598E-001
9.47510426E-001
9.61353397E-001
9.84497541E-001
9.47395078E-001
9.49922329E-001
9.55700645E-001
9.49408648E-001
9.47703905E-001
9.69086138E-001
9.48136315E-001
9.77421139E-001
9.47216391E-001
9.62587011E-001
9.56486547E-001
9.95993292E-001
9.46767727E-001
9.48539478E-001
9.49667852E-001
9.46738740E-001
9.87767002E-001
9.57330514E-001
9.47397731E-001
9.46642230E-001
9.46981727E-001
9.71016477E-001
9.63896193E-001
9.51952593E-001
9.80128396E-001
9.47773375E-001
9.46486509E-001
9.52492744E-001
9.58271207E-001
9.50709843E-001
9.46674751E-001
9.48228077E-001
9.53115835E-001
9.73138737E-001
9.46260406E-001
1.00000000E+000
9.91561288E-001
9.49564519E-001
9.45963178E-001
9.47022290E-001
9.65165343E-001
9.45896046E-001
9.59293159E-001
9.83253774E-001
9.53750015E-001
9.45759540E-001
9.47380852E-001
9.45971229E-001
9.46310012E-001
9.48312830E-001
9.66791183E-001
9.54488189E-001
9.75613227E-001
9.60450601E-001
9.45557101E-001
9.46582318E-001
9.95449658E-001
9.45176028E-001
9.45137527E-001
9.86784613E-001
9.55245319E-001
9.45605334E-001
9.50068472E-001
9.45277502E-001
9.45032183E-001
9.61450551E-001
9.45859674E-001
9.78370125E-001
9.46887197E-001
9.50558239E-001
9.48872835E-001
9.44848213E-001
9.68011540E-001
9.44930852E-001
9.51097648E-001
9.46112991E-001
9.47785684E-001
9.90897305E-001
9.44594553E-001
9.45168991E-001
9.44379474E-001
1.00000000E+000
9.55457981E-001
9.44302891E-001
9.62597092E-001
9.51673701E-001
9.81680445E-001
9.44150544E-001
9.45346300E-001
9.70064070E-001
9.46575019E-001
9.44257128E-001
9.44495263E-001
9.52317122E-001
9.56345060E-001
9.58151588E-001
9.43916129E-001
9.44644816E-001
9.95296257E-001
9.43602961E-001
9.48167293E-001
9.43565594E-001
9.45460272E-001
9.85427243E-001
9.63442895E-001
9.43843771E-001
9.43605831E-001
9.43441181E-001
9.48572187E-001
9.43987522E-001
9.59021124E-001
9.46960079E-001
9.71353337E-001
9.44725146E-001
9.49125523E-001
9.43240440E-001
9.52322533E-001
9.45928151E-001
9.43203312E-001
9.44037185E-001
9.49602428E-001
9.43336956E-001
9.90001168E-001
9.42948984E-001
9.42821799E-001
9.45110124E-001
1.00000000E+000
9.64426987E-001
9.42736759E-001
9.73971542E-001
9.43373274E-001
9.42564436E-001
9.42576271E-001
9.42720908E-001
9.52309614E-001
9.53843456E-001
9.78211145E-001
9.55587468E-001
9.44029506E-001
9.42307543E-001
9.42743318E-001
9.58631039E-001
9.46133310E-001
9.43322489E-001
9.94457349E-001
9.48896552E-001
9.42062680E-001
9.46566266E-001
9.42014748E-001
9.42104833E-001
9.65172838E-001
9.41954958E-001
9.44987346E-001
9.47037488E-001
9.41883613E-001
9.42130989E-001
9.42675102E-001