# vtk DataFile Version 1.0
ECM-CELL DIFFUSION-MECHANICS
ASCII

DATASET UNSTRUCTURED_GRID
POINTS     3410 float
1.50000000E+001 3.00000000E+001 0.00000000E+000
1.45000000E+001 3.00000000E+001 0.00000000E+000
1.46430000E+001 2.96430000E+001 0.00000000E+000
1.41690000E+001 2.96610000E+001 0.00000000E+000
1.40000000E+001 3.00000000E+001 0.00000000E+000
1.42860000E+001 2.92860000E+001 0.00000000E+000
1.38110000E+001 2.95170000E+001 0.00000000E+000
1.35000000E+001 3.00000000E+001 0.00000000E+000
1.39290000E+001 2.89290000E+001 0.00000000E+000
1.35410000E+001 2.91740000E+001 0.00000000E+000
1.32500000E+001 2.95670000E+001 0.00000000E+000
1.30000000E+001 3.00000000E+001 0.00000000E+000
1.35710000E+001 2.85710000E+001 0.00000000E+000
1.30600000E+001 2.91190000E+001 0.00000000E+000
1.27500000E+001 2.95670000E+001 0.00000000E+000
1.25000000E+001 3.00000000E+001 0.00000000E+000
1.32140000E+001 2.82140000E+001 0.00000000E+000
1.28490000E+001 2.86680000E+001 0.00000000E+000
1.25000000E+001 2.91340000E+001 0.00000000E+000
1.22500000E+001 2.95670000E+001 0.00000000E+000
1.20000000E+001 3.00000000E+001 0.00000000E+000
1.28570000E+001 2.78570000E+001 0.00000000E+000
1.25000000E+001 2.82680000E+001 0.00000000E+000
1.22500000E+001 2.87010000E+001 0.00000000E+000
1.20000000E+001 2.91340000E+001 0.00000000E+000
1.17500000E+001 2.95670000E+001 0.00000000E+000
1.20000000E+001 2.82680000E+001 0.00000000E+000
1.15000000E+001 3.00000000E+001 0.00000000E+000
1.17500000E+001 2.87010000E+001 0.00000000E+000
1.22500000E+001 2.78350000E+001 0.00000000E+000
1.25000000E+001 2.75000000E+001 0.00000000E+000
1.15000000E+001 2.91340000E+001 0.00000000E+000
1.12500000E+001 2.95670000E+001 0.00000000E+000
1.15000000E+001 2.82680000E+001 0.00000000E+000
1.17740000E+001 2.77920000E+001 0.00000000E+000
1.12500000E+001 2.87010000E+001 0.00000000E+000
1.10000000E+001 3.00000000E+001 0.00000000E+000
1.21430000E+001 2.71430000E+001 0.00000000E+000
1.10000000E+001 2.91340000E+001 0.00000000E+000
1.07500000E+001 2.95670000E+001 0.00000000E+000
1.12500000E+001 2.78350000E+001 0.00000000E+000
1.10000000E+001 2.82680000E+001 0.00000000E+000
1.15340000E+001 2.73210000E+001 0.00000000E+000
1.07500000E+001 2.87010000E+001 0.00000000E+000
1.05000000E+001 3.00000000E+001 0.00000000E+000
1.17860000E+001 2.67860000E+001 0.00000000E+000
1.05000000E+001 2.91340000E+001 0.00000000E+000
1.02500000E+001 2.95670000E+001 0.00000000E+000
1.10000000E+001 2.74020000E+001 0.00000000E+000
1.07500000E+001 2.78350000E+001 0.00000000E+000
1.12500000E+001 2.69690000E+001 0.00000000E+000
1.05000000E+001 2.82680000E+001 0.00000000E+000
1.02500000E+001 2.87010000E+001 0.00000000E+000
1.00000000E+001 3.00000000E+001 0.00000000E+000
1.14290000E+001 2.64290000E+001 0.00000000E+000
1.00000000E+001 2.91340000E+001 0.00000000E+000
1.05000000E+001 2.74020000E+001 0.00000000E+000
1.07500000E+001 2.69690000E+001 0.00000000E+000
1.02500000E+001 2.78350000E+001 0.00000000E+000
1.10110000E+001 2.65940000E+001 0.00000000E+000
9.75000000E+000 2.95670000E+001 0.00000000E+000
1.00000000E+001 2.82680000E+001 0.00000000E+000
9.75000000E+000 2.87010000E+001 0.00000000E+000
9.50000000E+000 3.00000000E+001 0.00000000E+000
1.10710000E+001 2.60710000E+001 0.00000000E+000
9.50000000E+000 2.91340000E+001 0.00000000E+000
1.02500000E+001 2.69690000E+001 0.00000000E+000
1.00000000E+001 2.74020000E+001 0.00000000E+000
1.05540000E+001 2.65310000E+001 0.00000000E+000
9.75000000E+000 2.78350000E+001 0.00000000E+000
9.50000000E+000 2.82680000E+001 0.00000000E+000
9.25000000E+000 2.95670000E+001 0.00000000E+000
9.25000000E+000 2.87010000E+001 0.00000000E+000
9.00000000E+000 3.00000000E+001 0.00000000E+000
1.03640000E+001 2.61020000E+001 0.00000000E+000
1.07140000E+001 2.57140000E+001 0.00000000E+000
9.00000000E+000 2.91340000E+001 0.00000000E+000
9.75000000E+000 2.69690000E+001 0.00000000E+000
1.00000000E+001 2.65360000E+001 0.00000000E+000
9.50000000E+000 2.74020000E+001 0.00000000E+000
9.25000000E+000 2.78350000E+001 0.00000000E+000
9.00000000E+000 2.82680000E+001 0.00000000E+000
8.75000000E+000 2.95670000E+001 0.00000000E+000
8.75000000E+000 2.87010000E+001 0.00000000E+000
9.50000000E+000 2.65360000E+001 0.00000000E+000
8.50000000E+000 3.00000000E+001 0.00000000E+000
9.25000000E+000 2.69690000E+001 0.00000000E+000
9.75000000E+000 2.61030000E+001 0.00000000E+000
9.00000000E+000 2.74020000E+001 0.00000000E+000
1.00950000E+001 2.56580000E+001 0.00000000E+000
8.50000000E+000 2.91340000E+001 0.00000000E+000
1.03570000E+001 2.53570000E+001 0.00000000E+000
8.75000000E+000 2.78350000E+001 0.00000000E+000
8.50000000E+000 2.82680000E+001 0.00000000E+000
8.25000000E+000 2.95670000E+001 0.00000000E+000
8.25000000E+000 2.87010000E+001 0.00000000E+000
9.00000000E+000 2.65360000E+001 0.00000000E+000
9.25000000E+000 2.61030000E+001 0.00000000E+000
8.75000000E+000 2.69690000E+001 0.00000000E+000
9.50000000E+000 2.56700000E+001 0.00000000E+000
8.00000000E+000 3.00000000E+001 0.00000000E+000
8.50000000E+000 2.74020000E+001 0.00000000E+000
8.00000000E+000 2.91340000E+001 0.00000000E+000
1.00000000E+001 2.50000000E+001 0.00000000E+000
8.25000000E+000 2.78350000E+001 0.00000000E+000
8.00000000E+000 2.82680000E+001 0.00000000E+000
7.75000000E+000 2.95670000E+001 0.00000000E+000
8.75000000E+000 2.61030000E+001 0.00000000E+000
8.50000000E+000 2.65360000E+001 0.00000000E+000
7.75000000E+000 2.87010000E+001 0.00000000E+000
9.00000000E+000 2.56700000E+001 0.00000000E+000
8.25000000E+000 2.69690000E+001 0.00000000E+000
9.31550000E+000 2.51710000E+001 0.00000000E+000
8.00000000E+000 2.74020000E+001 0.00000000E+000
7.50000000E+000 3.00000000E+001 0.00000000E+000
7.50000000E+000 2.91340000E+001 0.00000000E+000
7.75000000E+000 2.78350000E+001 0.00000000E+000
9.64290000E+000 2.46430000E+001 0.00000000E+000
7.50000000E+000 2.82680000E+001 0.00000000E+000
7.25000000E+000 2.95670000E+001 0.00000000E+000
8.25000000E+000 2.61030000E+001 0.00000000E+000
8.50000000E+000 2.56700000E+001 0.00000000E+000
8.00000000E+000 2.65360000E+001 0.00000000E+000
8.75000000E+000 2.52370000E+001 0.00000000E+000
7.25000000E+000 2.87010000E+001 0.00000000E+000
7.75000000E+000 2.69690000E+001 0.00000000E+000
9.00000000E+000 2.48040000E+001 0.00000000E+000
7.50000000E+000 2.74020000E+001 0.00000000E+000
7.00000000E+000 3.00000000E+001 0.00000000E+000
7.00000000E+000 2.91340000E+001 0.00000000E+000
7.25000000E+000 2.78350000E+001 0.00000000E+000
9.28570000E+000 2.42860000E+001 0.00000000E+000
7.00000000E+000 2.82680000E+001 0.00000000E+000
7.76690000E+000 2.60200000E+001 0.00000000E+000
6.75000000E+000 2.95670000E+001 0.00000000E+000
7.50000000E+000 2.65360000E+001 0.00000000E+000
8.50000000E+000 2.48040000E+001 0.00000000E+000
7.25000000E+000 2.69690000E+001 0.00000000E+000
6.75000000E+000 2.87010000E+001 0.00000000E+000
7.91300000E+000 2.55420000E+001 0.00000000E+000
8.71180000E+000 2.44190000E+001 0.00000000E+000
8.16540000E+000 2.51020000E+001 0.00000000E+000
7.00000000E+000 2.74020000E+001 0.00000000E+000
6.50000000E+000 3.00000000E+001 0.00000000E+000
6.75000000E+000 2.78350000E+001 0.00000000E+000
6.50000000E+000 2.91340000E+001 0.00000000E+000
8.92860000E+000 2.39290000E+001 0.00000000E+000
7.31680000E+000 2.60750000E+001 0.00000000E+000
6.50000000E+000 2.82680000E+001 0.00000000E+000
8.20520000E+000 2.45850000E+001 0.00000000E+000
7.42580000E+000 2.56540000E+001 0.00000000E+000
6.25000000E+000 2.95670000E+001 0.00000000E+000
6.75000000E+000 2.69690000E+001 0.00000000E+000
6.95280000E+000 2.63980000E+001 0.00000000E+000
6.25000000E+000 2.87010000E+001 0.00000000E+000
7.57190000E+000 2.51760000E+001 0.00000000E+000
8.35130000E+000 2.41070000E+001 0.00000000E+000
6.50000000E+000 2.74020000E+001 0.00000000E+000
6.00000000E+000 3.00000000E+001 0.00000000E+000
7.71800000E+000 2.46980000E+001 0.00000000E+000
6.25000000E+000 2.78350000E+001 0.00000000E+000
6.00000000E+000 2.91340000E+001 0.00000000E+000
8.57140000E+000 2.35710000E+001 0.00000000E+000
6.93860000E+000 2.57670000E+001 0.00000000E+000
6.00000000E+000 2.82680000E+001 0.00000000E+000
6.50000000E+000 2.65360000E+001 0.00000000E+000
7.86410000E+000 2.42200000E+001 0.00000000E+000
7.08480000E+000 2.52890000E+001 0.00000000E+000
5.75000000E+000 2.95670000E+001 0.00000000E+000
6.25000000E+000 2.69690000E+001 0.00000000E+000
5.75000000E+000 2.87010000E+001 0.00000000E+000
7.23090000E+000 2.48100000E+001 0.00000000E+000
6.00000000E+000 2.74020000E+001 0.00000000E+000
8.01020000E+000 2.37420000E+001 0.00000000E+000
6.51060000E+000 2.59350000E+001 0.00000000E+000
7.37700000E+000 2.43320000E+001 0.00000000E+000
5.50000000E+000 3.00000000E+001 0.00000000E+000
5.75000000E+000 2.78350000E+001 0.00000000E+000
5.50000000E+000 2.91340000E+001 0.00000000E+000
6.59760000E+000 2.54010000E+001 0.00000000E+000
8.21430000E+000 2.32140000E+001 0.00000000E+000
5.50000000E+000 2.82680000E+001 0.00000000E+000
7.52310000E+000 2.38540000E+001 0.00000000E+000
6.74370000E+000 2.49230000E+001 0.00000000E+000
5.90740000E+000 2.65260000E+001 0.00000000E+000
5.75000000E+000 2.69690000E+001 0.00000000E+000
5.25000000E+000 2.95670000E+001 0.00000000E+000
6.88980000E+000 2.44450000E+001 0.00000000E+000
5.25000000E+000 2.87010000E+001 0.00000000E+000
5.50000000E+000 2.74020000E+001 0.00000000E+000
7.66920000E+000 2.33760000E+001 0.00000000E+000
5.96430000E+000 2.59920000E+001 0.00000000E+000
6.11040000E+000 2.55140000E+001 0.00000000E+000
5.25000000E+000 2.78350000E+001 0.00000000E+000
7.03590000E+000 2.39670000E+001 0.00000000E+000
5.00000000E+000 3.00000000E+001 0.00000000E+000
5.00000000E+000 2.91340000E+001 0.00000000E+000
6.25650000E+000 2.50360000E+001 0.00000000E+000
5.50300000E+000 2.65870000E+001 0.00000000E+000
7.85710000E+000 2.28570000E+001 0.00000000E+000
5.00000000E+000 2.82680000E+001 0.00000000E+000
7.18200000E+000 2.34880000E+001 0.00000000E+000
6.40260000E+000 2.45570000E+001 0.00000000E+000
5.25000000E+000 2.69690000E+001 0.00000000E+000
4.75000000E+000 2.95670000E+001 0.00000000E+000
5.47710000E+000 2.61040000E+001 0.00000000E+000
[...]
POINT_DATA     3410
SCALARS Ux float
LOOKUP_TABLE default
1.00000000E+000
9.99903633E-001
1.00000000E+000
9.99773451E-001
9.99610681E-001
1.00000000E+000
9.99532518E-001
9.99115856E-001
1.00000000E+000
9.99430460E-001
9.98877558E-001
9.98438263E-001
1.00000000E+000
9.98830207E-001
9.98096947E-001
9.97564694E-001
1.00000000E+000
9.98890679E-001
9.97856505E-001
9.97128682E-001
9.96498624E-001
1.00000000E+000
9.98737565E-001
9.97717071E-001
9.96789969E-001
9.95965334E-001
9.97662738E-001
9.95239001E-001
9.96545107E-001
9.98877008E-001
1.00000000E+000
9.95527098E-001
9.94608612E-001
9.96391976E-001
9.97837520E-001
9.95181772E-001
9.93787473E-001
1.00000000E+000
9.94071778E-001
9.93060972E-001
9.96334967E-001
9.94928494E-001
9.98110699E-001
9.93626161E-001
9.92146650E-001
1.00000000E+000
9.92426038E-001
9.91325265E-001
9.96374068E-001
9.94766548E-001
9.98085803E-001
9.93269520E-001
9.91879349E-001
9.90319937E-001
1.00000000E+000
9.90592688E-001
9.94693001E-001
9.96500175E-001
9.92999221E-001
9.98294700E-001
9.89405287E-001
9.91417333E-001
9.89944334E-001
9.88311851E-001
1.00000000E+000
9.88575836E-001
9.94705347E-001
9.92812626E-001
9.96925873E-001
9.91036283E-001
9.89375273E-001
9.87306131E-001
9.87825512E-001
9.86128316E-001
9.97486129E-001
1.00000000E+000
9.86381050E-001
9.92709054E-001
9.94810857E-001
9.90732833E-001
9.88880394E-001
9.87147763E-001
9.85034431E-001
9.85528803E-001
9.92688566E-001
9.83776907E-001
9.90504077E-001
9.95011017E-001
9.88454549E-001
9.97894124E-001
9.84015572E-001
1.00000000E+000
9.86535647E-001
9.84740931E-001
9.82598594E-001
9.83061973E-001
9.90346989E-001
9.92749380E-001
9.88092455E-001
9.95297616E-001
9.81267064E-001
9.85981869E-001
9.81488569E-001
1.00000000E+000
9.84008360E-001
9.82163028E-001
9.80009005E-001
9.90258996E-001
9.87788440E-001
9.80434919E-001
9.92893075E-001
9.85478787E-001
9.96270561E-001
9.83321398E-001
9.78610267E-001
9.78811340E-001
9.81307271E-001
1.00000000E+000
9.79424702E-001
9.77278183E-001
9.87534633E-001
9.90241441E-001
9.85018764E-001
9.93135429E-001
9.77659890E-001
9.82669781E-001
9.96188666E-001
9.80482307E-001
9.75820153E-001
9.75997459E-001
9.78443813E-001
1.00000000E+000
9.76539276E-001
9.84908199E-001
9.74420863E-001
9.82042474E-001
9.93439283E-001
9.79674937E-001
9.74751633E-001
9.87206813E-001
9.96356924E-001
9.90280117E-001
9.77476629E-001
9.72912547E-001
9.75432683E-001
9.73062837E-001
1.00000000E+000
9.81928527E-001
9.73522920E-001
9.92609009E-001
9.83746653E-001
9.71453990E-001
9.76504540E-001
9.78825376E-001
9.71727409E-001
9.86214635E-001
9.95759777E-001
9.74321482E-001
9.69905412E-001
9.88975458E-001
9.72291965E-001
9.70025656E-001
1.00000000E+000
9.80113198E-001
9.70394546E-001
9.75520048E-001
9.92063846E-001
9.82463107E-001
9.68396618E-001
9.73185527E-001
9.68606851E-001
9.85111777E-001
9.71037534E-001
9.95502815E-001
9.76688940E-001
9.88094253E-001
9.66818703E-001
9.69042617E-001
9.66906223E-001
9.78556734E-001
1.00000000E+000
9.67175507E-001
9.91452233E-001
9.81043156E-001
9.71349033E-001
9.69735319E-001
9.65269718E-001
9.83868350E-001
9.65411760E-001
9.67648283E-001
9.95218037E-001
9.72543811E-001
9.74540907E-001
9.65707862E-001
9.87083350E-001
9.63674129E-001
9.63726730E-001
9.76819895E-001
9.68329890E-001
1.00000000E+000
9.63889399E-001
9.90744116E-001
9.79438653E-001
9.66188500E-001
9.62095898E-001
9.68654205E-001
9.82446074E-001
9.62165847E-001
9.64177857E-001
9.70444444E-001
9.94886197E-001
9.72494469E-001
9.62313502E-001
9.85910685E-001
9.60494839E-001
9.74855571E-001
9.60510929E-001
1.00000000E+000
9.65022162E-001
9.60561911E-001
9.77591596E-001
9.89899952E-001
9.62553123E-001
9.66313945E-001
9.58899043E-001
9.80778109E-001
9.68113759E-001
9.60655869E-001
9.58894353E-001
9.94482889E-001
9.70187919E-001
9.58888112E-001
9.84509391E-001
9.57305019E-001
9.72600947E-001
9.57283703E-001
1.00000000E+000
9.60661284E-001
9.57220251E-001
9.75434503E-001
9.62224531E-001
9.88876151E-001
9.58886882E-001
9.63743690E-001
9.55703870E-001
9.65502711E-001
9.78789025E-001
9.57115735E-001
9.55623475E-001
9.67555102E-001
9.94130337E-001
9.55461406E-001
9.82787567E-001
9.69975751E-001
9.54129451E-001
9.54070551E-001
9.57081731E-001
9.58201274E-001
9.59435925E-001
1.00000000E+000
9.53892252E-001
9.72865830E-001
9.55213043E-001
9.87657179E-001
9.60871477E-001
9.62545760E-001
9.52535455E-001
9.53589098E-001
9.76360287E-001
9.52379740E-001
9.64522400E-001
9.93360726E-001
9.52062990E-001
9.80625564E-001
9.66883051E-001
9.54265413E-001
9.50993039E-001
9.53154572E-001
9.50897066E-001
9.56352906E-001
9.69759485E-001
1.00000000E+000
9.50605653E-001
9.57647682E-001
9.51573795E-001
9.53896614E-001
9.85889846E-001
9.59171655E-001
9.49418758E-001
9.50107625E-001
9.73320646E-001
9.49189446E-001
9.60998470E-001
9.50995271E-001
9.92424992E-001
9.48721909E-001
9.77792347E-001
9.63171988E-001
9.49381857E-001
9.47920360E-001
9.52932920E-001
9.47788453E-001
9.54010889E-001
9.50683494E-001
9.47387589E-001
9.47996583E-001
1.00000000E+000
9.65432987E-001
9.83533703E-001
9.55306043E-001
9.46378181E-001
9.48387454E-001
9.46701382E-001
9.46078184E-001
9.46977611E-001
9.91290943E-001
9.67391526E-001
9.45466224E-001
9.55470529E-001
9.58722101E-001
9.45698696E-001
9.49249124E-001
9.44935254E-001
9.50194217E-001
9.44769093E-001
9.47063442E-001
9.44516154E-001
9.44264125E-001
1.00000000E+000
9.69328513E-001
9.45605298E-001
9.76733742E-001
9.44326116E-001
9.43399804E-001
9.43437176E-001
9.48670203E-001
9.57693187E-001
9.43070406E-001
9.43182165E-001
9.89644811E-001
9.42322544E-001
9.49215336E-001
9.45275459E-001
9.51881503E-001
9.42137816E-001
9.60643691E-001
9.43773337E-001
9.42060458E-001
9.41862166E-001
9.42495880E-001
9.41162652E-001
9.65146477E-001
9.41259814E-001
9.41389367E-001
1.00000000E+000
9.73422124E-001
9.40414814E-001
9.40229883E-001
9.40617916E-001
9.86930675E-001
9.39537953E-001
9.40189066E-001
9.42818871E-001
9.41294084E-001
9.44647181E-001
9.40055535E-001
9.46906004E-001
9.39315426E-001
9.49838192E-001
9.38729290E-001
9.39014331E-001
9.53526522E-001
9.39317321E-001
9.38129522E-001
9.39089353E-001
9.58489282E-001
9.37962977E-001
9.37364587E-001
9.38397328E-001
1.00000000E+000
9.65773563E-001
9.36688710E-001
9.37215907E-001
9.37941035E-001
9.36074939E-001
9.36756901E-001
9.37858251E-001
9.37455340E-001
9.35855927E-001
9.39203163E-001
9.40862003E-001
9.35120098E-001
9.42876880E-001
9.34511638E-001
9.36467093E-001
9.35499420E-001
9.45253362E-001
9.34001353E-001
9.36725581E-001
9.48877100E-001
9.36470606E-001
9.47813792E-001
9.33563777E-001
9.34940728E-001
9.35697244E-001
9.49077596E-001
9.33176208E-001
9.31582802E-001
9.34379350E-001
9.31131507E-001
9.32140634E-001
9.35425446E-001
9.30777468E-001
9.32804962E-001
9.32818071E-001
9.44757721E-001
9.33542898E-001
9.30505715E-001
9.34888460E-001
9.34238416E-001
9.30298834E-001
9.21770124E-001
9.33797318E-001
9.32470533E-001
9.34575477E-001
9.30139782E-001
9.34303217E-001
9.34024019E-001
9.33713890E-001
9.30012042E-001
9.32116197E-001
9.33177941E-001
9.29899728E-001
9.29925556E-001
9.25853979E-001
9.25755591E-001
9.25962004E-001
9.25639092E-001
9.26089593E-001
9.25442059E-001
9.31738876E-001
9.00927224E-001
9.20637798E-001
9.29787621E-001
9.25033178E-001
9.33088235E-001
9.26236690E-001
9.32505627E-001
9.24148861E-001
9.26397855E-001
9.29661181E-001
9.07669530E-001
9.22284788E-001
9.26564854E-001
9.31323419E-001
9.26727929E-001
9.18606475E-001
9.32066373E-001
9.31765758E-001
9.29506535E-001
9.20025321E-001
9.30855593E-001
9.20666697E-001
9.19291776E-001
9.26876520E-001
9.12137267E-001
8.84260514E-001
9.21252821E-001
9.18399602E-001
9.17232714E-001
9.21802892E-001
9.15594246E-001
9.29310457E-001
9.22325281E-001
9.02747563E-001
9.26999711E-001
9.30944614E-001
9.13167227E-001
9.22821720E-001
9.30322007E-001
8.92805024E-001
9.23289825E-001
9.09497002E-001
9.27086507E-001
9.29060348E-001
9.23724627E-001
9.04080541E-001
9.30029339E-001
8.69440301E-001
9.29710062E-001
9.14906270E-001
9.13677669E-001
9.27126014E-001
9.15999830E-001
9.12253445E-001
8.79376104E-001
9.16995951E-001
9.10538608E-001
9.28744237E-001
8.96664669E-001
9.24119528E-001
9.08388688E-001
9.17917053E-001
9.18775510E-001
9.05594924E-001
9.27107568E-001
9.24466935E-001
8.87521202E-001
9.19577022E-001
9.29007936E-001
9.01883675E-001
9.28350783E-001
8.96959438E-001
9.20322826E-001
9.24758687E-001
8.77210526E-001
9.27020834E-001
8.55873989E-001
9.21011158E-001
8.90618477E-001
9.08717060E-001
9.10351095E-001
9.06872198E-001
9.11826188E-001
9.04740883E-001
9.28204581E-001
9.27869294E-001
9.13176961E-001
9.02216393E-001
9.24986348E-001
8.66516272E-001
8.82882966E-001
9.14425759E-001
9.21638239E-001
8.99155335E-001
9.26855877E-001
9.15586256E-001
8.95380471E-001
9.25141431E-001
8.55644951E-001
9.22198963E-001
8.74015813E-001
9.16666023E-001
8.90703089E-001
9.27289745E-001
8.43288399E-001
9.26603242E-001
8.84973918E-001
9.17668329E-001
9.22687378E-001
8.64424354E-001
9.25215561E-001
9.04341762E-001
9.02153417E-001
9.06315508E-001
8.99690771E-001
9.18593424E-001
8.78149368E-001
9.08117822E-001
8.96873951E-001
9.09779031E-001
8.93600964E-001
9.26602804E-001
9.26254015E-001
9.23097034E-001
8.54468715E-001
9.11319774E-001
8.89750651E-001
8.70328260E-001
9.19439451E-001
9.25200624E-001
9.12753479E-001
8.85195226E-001
8.44199921E-001
9.14088255E-001
9.20203113E-001
9.23421259E-001
8.61727529E-001
8.79825874E-001
8.31289735E-001
9.25799861E-001
8.73587307E-001
9.15328319E-001
9.25088880E-001
8.98017972E-001
9.00495567E-001
8.95280791E-001
9.20880143E-001
9.02760657E-001
8.92223441E-001
8.52607212E-001
9.23653365E-001
9.04848624E-001
8.88771315E-001
8.34406422E-001
8.66505292E-001
9.16475073E-001
9.06785283E-001
8.84838204E-001
9.08588870E-001
9.25233050E-001
8.80333767E-001
9.21465671E-001
8.43202406E-001
9.24873088E-001
9.17527921E-001
8.58688581E-001
9.10271727E-001
8.75177562E-001
9.23786841E-001
8.19821054E-001
9.11841682E-001
8.69318183E-001
9.18484846E-001
8.50300922E-001
9.21954514E-001
8.33665451E-001
9.24546486E-001
8.94404653E-001
8.91431687E-001
8.97132892E-001
8.88167510E-001
9.13303176E-001
8.62751232E-001
8.24564397E-001
9.23815489E-001
8.99653568E-001
8.84556358E-001
9.01995421E-001
9.19342840E-001
8.80535027E-001
8.41519310E-001
9.22341414E-001
9.04180012E-001
9.14658175E-001
8.76037556E-001
8.55527013E-001
9.06222974E-001
8.71003455E-001
9.24102824E-001
9.20098257E-001
8.32498691E-001
9.23733816E-001
8.08729732E-001
9.15906893E-001
8.47742455E-001
9.08135132E-001
8.65388907E-001
8.14608988E-001
9.22621297E-001
9.09923515E-001
8.59178249E-001
9.17048189E-001
8.39520425E-001
9.20747142E-001
8.88083952E-001
8.23367833E-001
8.91265891E-001
8.84635285E-001
8.94217057E-001
8.80877543E-001
8.96966793E-001
8.76763361E-001
9.23536302E-001
9.11592321E-001
8.52391365E-001
8.99538282E-001
9.22789033E-001
8.72243413E-001
9.18079961E-001
8.30986172E-001
9.01949277E-001
8.67271510E-001
9.21285348E-001
9.13143693E-001
8.45083157E-001
8.14179757E-001
9.04212858E-001
8.61811470E-001
7.97935871E-001
9.23218336E-001
9.18999436E-001
8.22250945E-001
9.14578558E-001
8.37334624E-001
9.06338067E-001
9.22842517E-001
8.55844554E-001
8.05620846E-001
9.21709680E-001
9.08330739E-001
8.85192279E-001
8.81573957E-001
8.49375272E-001
8.88564551E-001
8.77677104E-001
9.15896060E-001
8.91718684E-001
8.73465684E-001
8.29239052E-001
9.19803905E-001
8.13399909E-001
8.94677779E-001
8.68902180E-001
9.10194653E-001
8.42433275E-001
9.22773855E-001
8.97460443E-001
8.63950887E-001
9.22011423E-001
7.95929433E-001
9.17095011E-001
9.00081127E-001
8.58582315E-001
8.20888589E-001
9.11931586E-001
8.35070211E-001
7.87391651E-001
9.20488676E-001
8.04502928E-001
9.02550598E-001
8.52778109E-001
9.18172362E-001
9.04875588E-001
8.46535339E-001
8.12364456E-001
9.22586898E-001
9.13544954E-001
8.27352438E-001
9.22210698E-001
8.78943521E-001
8.82721838E-001
8.74911640E-001
9.21062324E-001
8.86271594E-001
8.70598551E-001
7.95598059E-001
9.07060319E-001
8.39868865E-001
8.89614366E-001
8.65975404E-001
9.15029714E-001
8.19352052E-001
8.92768137E-001
8.61014370E-001
9.19130488E-001
8.03733513E-001
8.95748088E-001
9.09109289E-001
8.55691565E-001
8.32810787E-001
8.98565530E-001
8.49990381E-001
7.77034186E-001
9.22222043E-001
7.87501500E-001
7.82111016E-001
9.16392555E-001
8.11138838E-001
9.11018396E-001
8.25406985E-001
9.01230451E-001
8.43904617E-001
7.95046645E-001
9.19978708E-001
9.21413052E-001
9.03743381E-001
8.37440638E-001
9.17612804E-001
9.12815434E-001
8.76713364E-001
8.72548080E-001
8.17711699E-001
8.02774926E-001
9.22214509E-001
8.80645756E-001
8.68128666E-001
9.21826901E-001
8.84364404E-001
8.63432841E-001
8.87885630E-001
8.58438831E-001
9.06108291E-001
8.30617891E-001
7.86341193E-001
9.20657463E-001
8.91222549E-001
8.53127384E-001
8.09781688E-001
9.18740311E-001
7.94312196E-001
8.94390774E-001
8.47484081E-001
9.14339911E-001
9.08342517E-001
8.23467503E-001
7.66853735E-001
7.71868855E-001
8.97392170E-001
8.41501624E-001
7.77649760E-001
9.15984898E-001
8.01671306E-001
8.16029269E-001
9.00232765E-001
8.35181632E-001
7.85791963E-001
8.70561030E-001
8.74859990E-001
8.66030294E-001
8.78943377E-001
8.61250621E-001
9.02937521E-001
8.28535500E-001
9.10317874E-001
9.12373351E-001
8.82825734E-001
8.56205004E-001
8.08347759E-001
7.93429234E-001
9.22076097E-001
9.21937684E-001
8.86518621E-001
8.50878016E-001
9.21565246E-001
9.20922353E-001
8.21584060E-001
8.94401879E-001
8.90435495E-001
8.45257467E-001
7.77246699E-001
9.05562003E-001
9.20011513E-001
8.00468466E-001
8.39336089E-001
9.18847087E-001
7.56813087E-001
7.61768721E-001
7.85096884E-001
7.66642332E-001
8.14356034E-001
8.99675065E-001
9.07765412E-001
9.17394319E-001
8.33112968E-001
7.69932574E-001
8.96311854E-001
7.92434677E-001
9.15695716E-001
8.26594459E-001
8.06885635E-001
8.68930991E-001
8.64283494E-001
8.73365452E-001
8.59409902E-001
7.76708151E-001
8.77598960E-001
8.54297051E-001
9.13687265E-001
9.02472525E-001
8.19794334E-001
8.81643442E-001
8.48932694E-001
7.99209795E-001
8.85501928E-001
8.43306742E-001
7.84285406E-001
9.11408240E-001
8.37412518E-001
8.12733103E-001
8.90583393E-001
7.68289477E-001
7.51797491E-001
7.46892377E-001
7.56636834E-001
8.31247894E-001
9.08819017E-001
7.91365565E-001
8.05436639E-001
7.76054341E-001
8.24816127E-001
8.97435865E-001
9.05913795E-001
8.62872904E-001
8.67643108E-001
8.57895871E-001
8.18126211E-001
7.83388079E-001
7.59844581E-001
7.97934318E-001
8.72216315E-001
8.52702111E-001
8.76599470E-001
8.47282000E-001
7.67769534E-001
8.93396969E-001
9.02715360E-001
8.80815974E-001
8.41627374E-001
8.11192679E-001
8.35732407E-001
7.90257023E-001
7.75309213E-001
8.29594530E-001
8.04034883E-001
7.41935471E-001
7.46738465E-001
8.99171905E-001
7.37075259E-001
7.51467747E-001
7.59434010E-001
8.89321160E-001
8.84899659E-001
8.23215153E-001
7.82435348E-001
7.96675863E-001
7.67156850E-001
8.16600090E-001
8.95330042E-001
8.61787057E-001
8.56696933E-001
8.66685957E-001
8.51409908E-001
8.71404975E-001
8.45917960E-001
8.09759588E-001
7.74498262E-001
8.40214833E-001
7.89140952E-001
7.51102854E-001
8.76052669E-001
8.80312833E-001
8.34295595E-001
8.91142648E-001
7.58935015E-001
8.02707964E-001
8.28157704E-001
7.81456162E-001
7.36939869E-001
7.32169373E-001
7.41653389E-001
8.21801522E-001
7.66472333E-001
7.27349498E-001
7.95463056E-001
8.86612745E-001
8.15230773E-001
7.50702408E-001
7.73646992E-001
7.88045336E-001
8.08452703E-001
8.55803222E-001
8.61020247E-001
8.50412662E-001
7.58361616E-001
8.66044071E-001
8.44833940E-001
8.70936947E-001
8.39064995E-001
8.81762294E-001
8.33101099E-001
8.01477893E-001
7.80477009E-001
7.65737602E-001
7.42456804E-001
8.26940174E-001
8.20582014E-001
7.94319696E-001
7.50225138E-001
7.27227545E-001
7.31914976E-001
7.22488604E-001
7.17705782E-001
8.76561669E-001
8.14028976E-001
7.72779650E-001
7.57731737E-001
7.34874317E-001
7.86994596E-001
8.07286205E-001
7.42060620E-001
8.49708397E-001
8.60579757E-001
8.44023598E-001
7.64974927E-001
8.00361683E-001
8.38174538E-001
7.79520548E-001
8.54791711E-001
8.71054538E-001
8.32147622E-001
7.49687705E-001
8.25943396E-001
7.93265732E-001
8.19561253E-001
7.71919405E-001
7.57062990E-001
7.22258389E-001
8.13002470E-001
7.17594068E-001
7.26873258E-001
7.12885366E-001
7.31431789E-001
7.41603456E-001
8.65192346E-001
7.08137260E-001
7.85626371E-001
8.06270891E-001
7.64203409E-001
7.49106846E-001
7.99372219E-001
8.49299552E-001
7.77562013E-001
8.37543425E-001
8.43896428E-001
8.31433673E-001
7.33492984E-001
8.59051080E-001
7.92315354E-001
7.56380904E-001
8.25168052E-001
7.41097435E-001
8.18742197E-001
7.85108899E-001
8.12157289E-001
7.12671952E-001
7.68439003E-001
7.63446164E-001
7.17268440E-001
7.08032554E-001
7.21817683E-001
7.03353936E-001
8.05401788E-001
6.98639181E-001
8.52589592E-001
7.24940122E-001
7.33056848E-001
7.98619701E-001
7.46098799E-001
7.91969568E-001
7.39472165E-001
7.85961540E-001
8.37179682E-001
8.30952429E-001
7.75497568E-001
8.24615994E-001
7.69360469E-001
7.54071051E-001
8.18125448E-001
8.45842940E-001
7.47936580E-001
8.11497760E-001
8.04724729E-001
7.07726806E-001
7.03151368E-001
7.12262633E-001
6.98538637E-001
7.16756596E-001
6.93890626E-001
7.31241543E-001
7.57004441E-001
7.21202862E-001
6.89208708E-001
7.25607193E-001
7.77110383E-001
7.96639705E-001
8.38815950E-001
7.60841073E-001
7.81827377E-001
7.34262184E-001
8.24296609E-001
7.87702343E-001
7.38513976E-001
7.64205700E-001
8.17481388E-001
8.11026404E-001
7.42720433E-001
8.31527311E-001
6.98244588E-001
7.02761931E-001
6.93693588E-001
7.07244345E-001
8.03596516E-001
7.68165104E-001
6.89109755E-001
7.46878359E-001
7.11690102E-001
6.84493542E-001
7.16098634E-001
6.79844740E-001
7.20468788E-001
7.50999175E-001
7.88599178E-001
7.72114905E-001
7.94757545E-001
7.24798673E-001
8.24021802E-001
7.29090636E-001
7.55084515E-001
8.10744385E-001
7.76052726E-001
7.33344561E-001
7.59143714E-001
7.37562862E-001
6.93313964E-001
6.88819944E-001
6.97779254E-001
7.80477333E-001
6.84297152E-001
7.02215558E-001
6.79744992E-001
7.06622620E-001
8.03240099E-001
6.75162437E-001
7.63185409E-001
7.41749298E-001
7.96336640E-001
8.16271884E-001
7.11000241E-001
6.70547777E-001
7.15348136E-001
7.45909117E-001
7.83952097E-001
7.19666861E-001
7.67220966E-001
7.23957559E-001
7.50048019E-001
7.28221879E-001
8.08335178E-001
7.71259165E-001
7.87935711E-001
7.54173527E-001
6.83917995E-001
6.88360079E-001
6.79452448E-001
7.32462622E-001
6.92779650E-001
6.74962100E-001
6.97177381E-001
6.70444971E-001
7.01553810E-001
6.65898606E-001
7.75312285E-001
7.36683715E-001
7.05909405E-001
7.58294232E-001
6.61319843E-001
7.91981773E-001
7.10244881E-001
8.00199486E-001
7.40889974E-001
7.14561282E-001
7.79395893E-001
7.62419350E-001
7.18860119E-001
7.45087260E-001
7.23143534E-001
7.66558886E-001
6.78987009E-001
6.74574532E-001
6.83382607E-001
7.83521775E-001
6.70143041E-001
6.87763023E-001
6.65689909E-001
7.49282525E-001
7.27414505E-001
6.92129625E-001
6.61211791E-001
7.91909920E-001
6.96483536E-001
6.56704824E-001
7.00825863E-001
7.70724672E-001
7.31676773E-001
6.52164425E-001
7.53483605E-001
7.05157737E-001
7.09480516E-001
7.35934954E-001
7.57699126E-001
7.74928806E-001
7.13795924E-001
7.83460248E-001
7.40194557E-001
7.18106210E-001
6.69661371E-001
6.74025472E-001
6.65285331E-001
6.78380412E-001
6.60894004E-001
6.82728469E-001
7.61938863E-001
6.56483459E-001
6.87071485E-001
6.52048980E-001
7.44461960E-001
7.22414173E-001
6.91411061E-001
6.47585308E-001
6.95748559E-001
6.43086446E-001
7.26723310E-001
7.66213291E-001
7.00085302E-001
7.48744332E-001
7.74873481E-001
7.04422718E-001
7.31037849E-001
7.53049847E-001
7.08762496E-001
6.64710252E-001
6.60385636E-001
6.69031185E-001
7.35362786E-001
6.56053408E-001
6.73351716E-001
6.51708958E-001
7.13106628E-001
6.77674503E-001
6.47347018E-001
6.82001750E-001
7.57387347E-001
6.42961485E-001
6.86335175E-001
7.17457609E-001
7.39703854E-001
7.66163436E-001
6.38545697E-001
6.90676198E-001
6.34092249E-001
7.21818495E-001
6.95026071E-001
7.44067720E-001
6.99386049E-001
7.26192984E-001
7.03757441E-001
6.55439998E-001
7.48461687E-001
6.59717853E-001
6.51163458E-001
6.64001410E-001
6.46883064E-001
7.57342301E-001
6.68294268E-001
6.42592877E-001