# vtk DataFile Version 1.0
ECM-CELL DIFFUSION-MECHANICS
ASCII

DATASET UNSTRUCTURED_GRID
POINTS      248 float
1.50000000E+001 3.00000000E+001 0.00000000E+000
1.30000000E+001 3.00000000E+001 0.00000000E+000
1.35710000E+001 2.85710000E+001 0.00000000E+000
1.25910000E+001 2.89970000E+001 0.00000000E+000
1.10000000E+001 3.00000000E+001 0.00000000E+000
1.21430000E+001 2.71430000E+001 0.00000000E+000
1.12030000E+001 2.84200000E+001 0.00000000E+000
9.00000000E+000 3.00000000E+001 0.00000000E+000
1.07140000E+001 2.57140000E+001 0.00000000E+000
9.03230000E+000 2.75200000E+001 0.00000000E+000
7.00000000E+000 3.00000000E+001 0.00000000E+000
9.28570000E+000 2.42860000E+001 0.00000000E+000
6.62750000E+000 2.79900000E+001 0.00000000E+000
7.58720000E+000 2.54830000E+001 0.00000000E+000
5.82670000E+000 2.62400000E+001 0.00000000E+000
5.00000000E+000 3.00000000E+001 0.00000000E+000
7.85710000E+000 2.28570000E+001 0.00000000E+000
4.65090000E+000 2.81990000E+001 0.00000000E+000
6.26170000E+000 2.39310000E+001 0.00000000E+000
4.26420000E+000 2.66310000E+001 0.00000000E+000
4.87520000E+000 2.48810000E+001 0.00000000E+000
3.98830000E+000 2.55660000E+001 0.00000000E+000
3.00000000E+000 3.00000000E+001 0.00000000E+000
6.42860000E+000 2.14290000E+001 0.00000000E+000
2.81130000E+000 2.82480000E+001 0.00000000E+000
4.72710000E+000 2.25030000E+001 0.00000000E+000
2.68920000E+000 2.66100000E+001 0.00000000E+000
3.51610000E+000 2.38670000E+001 0.00000000E+000
2.82560000E+000 2.51870000E+001 0.00000000E+000
1.00000000E+000 3.00000000E+001 0.00000000E+000
5.00000000E+000 2.00000000E+001 0.00000000E+000
9.23930000E-001 2.81990000E+001 0.00000000E+000
9.13980000E-001 2.64290000E+001 0.00000000E+000
1.14330000E+000 2.47370000E+001 0.00000000E+000
1.70730000E+000 2.29680000E+001 0.00000000E+000
2.76840000E+000 2.08400000E+001 0.00000000E+000
5.00000000E+000 1.80000000E+001 0.00000000E+000
-1.00000000E+000 3.00000000E+001 0.00000000E+000
-1.02950000E+000 2.81190000E+001 0.00000000E+000
-9.85630000E-001 2.62650000E+001 0.00000000E+000
-8.34400000E-001 2.44030000E+001 0.00000000E+000
2.58070000E+000 1.83220000E+001 0.00000000E+000
5.00000000E+000 1.60000000E+001 0.00000000E+000
-5.20490000E-001 2.24930000E+001 0.00000000E+000
-1.10190000E-001 2.04520000E+001 0.00000000E+000
-3.00000000E+000 3.00000000E+001 0.00000000E+000
-3.01500000E+000 2.80470000E+001 0.00000000E+000
-2.99260000E+000 2.61070000E+001 0.00000000E+000
2.56960000E+000 1.61540000E+001 0.00000000E+000
-2.91280000E+000 2.41660000E+001 0.00000000E+000
5.00000000E+000 1.40000000E+001 0.00000000E+000
4.60210000E-003 1.82710000E+001 0.00000000E+000
-2.77330000E+000 2.22060000E+001 0.00000000E+000
-5.00000000E+000 3.00000000E+001 0.00000000E+000
-5.00000000E+000 2.80000000E+001 0.00000000E+000
-2.61100000E+000 2.02080000E+001 0.00000000E+000
2.58530000E+000 1.40700000E+001 0.00000000E+000
5.87790000E-002 1.61570000E+001 0.00000000E+000
-5.00000000E+000 2.60000000E+001 0.00000000E+000
5.00000000E+000 1.20000000E+001 0.00000000E+000
-5.00000000E+000 2.40000000E+001 0.00000000E+000
-2.51090000E+000 1.81540000E+001 0.00000000E+000
-5.00000000E+000 2.20000000E+001 0.00000000E+000
9.79950000E-002 1.40660000E+001 0.00000000E+000
2.58390000E+000 1.19750000E+001 0.00000000E+000
-2.47390000E+000 1.60870000E+001 0.00000000E+000
5.00000000E+000 1.00000000E+001 0.00000000E+000
-5.00000000E+000 2.00000000E+001 0.00000000E+000
-5.00000000E+000 1.80000000E+001 0.00000000E+000
1.25110000E-001 1.19530000E+001 0.00000000E+000
2.62540000E+000 9.87670000E+000 0.00000000E+000
-2.44360000E+000 1.40390000E+001 0.00000000E+000
5.00000000E+000 8.00000000E+000 0.00000000E+000
-5.00000000E+000 1.60000000E+001 0.00000000E+000
-2.42210000E+000 1.19810000E+001 0.00000000E+000
1.51510000E-001 9.73940000E+000 0.00000000E+000
2.74760000E+000 7.77820000E+000 0.00000000E+000
-5.00000000E+000 1.40000000E+001 0.00000000E+000
5.00000000E+000 6.00000000E+000 0.00000000E+000
-2.43490000E+000 9.86070000E+000 0.00000000E+000
3.07460000E+000 5.96890000E+000 0.00000000E+000
-5.00000000E+000 1.20000000E+001 0.00000000E+000
2.94710000E-001 7.24390000E+000 0.00000000E+000
1.54080000E+000 5.89400000E+000 0.00000000E+000
5.00000000E+000 4.00000000E+000 0.00000000E+000
-5.00000000E+000 1.00000000E+001 0.00000000E+000
-2.45880000E+000 7.66640000E+000 0.00000000E+000
3.08860000E+000 4.15460000E+000 0.00000000E+000
1.28500000E+000 4.41910000E+000 0.00000000E+000
-4.79240000E-001 5.06730000E+000 0.00000000E+000
5.00000000E+000 2.00000000E+000 0.00000000E+000
-5.00000000E+000 8.00000000E+000 0.00000000E+000
-2.69520000E+000 5.56090000E+000 0.00000000E+000
3.03600000E+000 2.20710000E+000 0.00000000E+000
1.14890000E+000 2.50690000E+000 0.00000000E+000
-5.00000000E+000 6.00000000E+000 0.00000000E+000
-7.53350000E-001 2.97810000E+000 0.00000000E+000
5.00000000E+000 1.77640000E-015 0.00000000E+000
-2.83220000E+000 3.48300000E+000 0.00000000E+000
3.02590000E+000 1.85470000E-001 0.00000000E+000
1.10280000E+000 4.34350000E-001 0.00000000E+000
-5.00000000E+000 4.00000000E+000 0.00000000E+000
-8.31570000E-001 8.80700000E-001 0.00000000E+000
5.00000000E+000 -2.00000000E+000 0.00000000E+000
-2.87310000E+000 1.38740000E+000 0.00000000E+000
3.05620000E+000 -1.87370000E+000 0.00000000E+000
-5.00000000E+000 2.00000000E+000 0.00000000E+000
1.15640000E+000 -1.67160000E+000 0.00000000E+000
-8.02580000E-001 -1.27700000E+000 0.00000000E+000
5.00000000E+000 -4.00000000E+000 0.00000000E+000
-2.85250000E+000 -7.67280000E-001 0.00000000E+000
3.09050000E+000 -3.91160000E+000 0.00000000E+000
-5.00000000E+000 0.00000000E+000 0.00000000E+000
1.19500000E+000 -3.76740000E+000 0.00000000E+000
-7.65850000E-001 -3.48180000E+000 0.00000000E+000
-7.09430000E+000 0.00000000E+000 0.00000000E+000
5.00000000E+000 -6.00000000E+000 0.00000000E+000
-2.80560000E+000 -3.13120000E+000 0.00000000E+000
3.08910000E+000 -5.94080000E+000 0.00000000E+000
-4.86360000E+000 -2.79880000E+000 0.00000000E+000
1.17340000E+000 -5.84680000E+000 0.00000000E+000
-9.18850000E+000 0.00000000E+000 0.00000000E+000
-7.50600000E-001 -5.68120000E+000 0.00000000E+000
5.00000000E+000 -8.00000000E+000 0.00000000E+000
-6.96340000E+000 -2.66830000E+000 0.00000000E+000
-2.74030000E+000 -5.47720000E+000 0.00000000E+000
3.08260000E+000 -7.98550000E+000 0.00000000E+000
-1.12830000E+001 0.00000000E+000 0.00000000E+000
1.18190000E+000 -7.92410000E+000 0.00000000E+000
-4.76540000E+000 -5.30710000E+000 0.00000000E+000
-9.11110000E+000 -2.59510000E+000 0.00000000E+000
-7.33820000E-001 -7.86420000E+000 0.00000000E+000
5.00000000E+000 -1.00000000E+001 0.00000000E+000
-1.33770000E+001 0.00000000E+000 0.00000000E+000
-6.83880000E+000 -5.21330000E+000 0.00000000E+000
-2.67060000E+000 -7.77010000E+000 0.00000000E+000
3.10270000E+000 -1.00000000E+001 0.00000000E+000
-1.13190000E+001 -2.49130000E+000 0.00000000E+000
1.20540000E+000 -1.00000000E+001 0.00000000E+000
-4.62940000E+000 -7.71220000E+000 0.00000000E+000
-9.02050000E+000 -5.17700000E+000 0.00000000E+000
-1.54710000E+001 0.00000000E+000 0.00000000E+000
-1.33670000E+001 -2.17610000E+000 0.00000000E+000
-6.91950000E-001 -1.00000000E+001 0.00000000E+000
-6.61690000E+000 -7.65780000E+000 0.00000000E+000
-2.58930000E+000 -1.00000000E+001 0.00000000E+000
-1.15170000E+001 -5.19390000E+000 0.00000000E+000
-1.52820000E+001 -2.03000000E+000 0.00000000E+000
-1.74240000E+001 0.00000000E+000 0.00000000E+000
-1.34810000E+001 -4.13660000E+000 0.00000000E+000
-8.62910000E+000 -7.66780000E+000 0.00000000E+000
-4.48660000E+000 -1.00000000E+001 0.00000000E+000
-1.51340000E+001 -3.88080000E+000 0.00000000E+000
-6.38390000E+000 -1.00000000E+001 0.00000000E+000
-1.70940000E+001 -2.06630000E+000 0.00000000E+000
-1.92270000E+001 0.00000000E+000 0.00000000E+000
-1.38630000E+001 -5.27170000E+000 0.00000000E+000
-1.06930000E+001 -7.74980000E+000 0.00000000E+000
-1.31140000E+001 -6.32990000E+000 0.00000000E+000
-8.28120000E+000 -1.00000000E+001 0.00000000E+000
-1.49930000E+001 -5.34870000E+000 0.00000000E+000
-1.67800000E+001 -4.00800000E+000 0.00000000E+000
-1.88910000E+001 -2.22720000E+000 0.00000000E+000
-2.08820000E+001 0.00000000E+000 0.00000000E+000
-1.24890000E+001 -8.11040000E+000 0.00000000E+000
-1.45760000E+001 -6.72650000E+000 0.00000000E+000
-1.01790000E+001 -1.00000000E+001 0.00000000E+000
-1.63390000E+001 -5.47550000E+000 0.00000000E+000
-2.23910000E+001 0.00000000E+000 0.00000000E+000
-2.06810000E+001 -2.25610000E+000 0.00000000E+000
-1.41600000E+001 -8.32510000E+000 0.00000000E+000
-1.84910000E+001 -4.61280000E+000 0.00000000E+000
-1.60410000E+001 -6.88440000E+000 0.00000000E+000
-1.74470000E+001 -5.65920000E+000 0.00000000E+000
-1.20590000E+001 -1.00000000E+001 0.00000000E+000
-2.37620000E+001 0.00000000E+000 0.00000000E+000
-1.74020000E+001 -6.90020000E+000 0.00000000E+000
-1.57640000E+001 -8.41360000E+000 0.00000000E+000
-1.38500000E+001 -1.00000000E+001 0.00000000E+000
-2.23920000E+001 -2.26610000E+000 0.00000000E+000
-2.05190000E+001 -4.59710000E+000 0.00000000E+000
-1.87500000E+001 -6.61370000E+000 0.00000000E+000
-2.50000000E+001 0.00000000E+000 0.00000000E+000
-1.72700000E+001 -8.42730000E+000 0.00000000E+000
-1.55510000E+001 -1.00000000E+001 0.00000000E+000
-2.39190000E+001 -1.97070000E+000 0.00000000E+000
-2.03100000E+001 -6.58740000E+000 0.00000000E+000
-2.61130000E+001 -1.25360000E-001 0.00000000E+000
-1.87290000E+001 -8.35530000E+000 0.00000000E+000
-2.52000000E+001 -1.70070000E+000 0.00000000E+000
-2.25950000E+001 -4.93200000E+000 0.00000000E+000
-1.71600000E+001 -1.00000000E+001 0.00000000E+000
-2.62030000E+001 -1.51440000E+000 0.00000000E+000
-2.01740000E+001 -8.34600000E+000 0.00000000E+000
-2.71690000E+001 -4.95160000E-001 0.00000000E+000
-2.17920000E+001 -6.84380000E+000 0.00000000E+000
-2.43970000E+001 -4.05780000E+000 0.00000000E+000
-1.86800000E+001 -1.00000000E+001 0.00000000E+000
-2.70430000E+001 -1.60050000E+000 0.00000000E+000
-2.56980000E+001 -3.34770000E+000 0.00000000E+000
-2.65210000E+001 -2.71760000E+000 0.00000000E+000
-2.15180000E+001 -8.45590000E+000 0.00000000E+000
-2.70430000E+001 -2.39000000E+000 0.00000000E+000
-2.81170000E+001 -1.09080000E+000 0.00000000E+000
-2.27860000E+001 -7.45960000E+000 0.00000000E+000
-2.01120000E+001 -1.00000000E+001 0.00000000E+000
-2.77820000E+001 -2.02360000E+000 0.00000000E+000
-2.38680000E+001 -6.92770000E+000 0.00000000E+000
-2.75640000E+001 -2.85170000E+000 0.00000000E+000
-2.26980000E+001 -8.60720000E+000 0.00000000E+000
-2.72100000E+001 -3.67670000E+000 0.00000000E+000
-2.14570000E+001 -1.00000000E+001 0.00000000E+000
-2.54250000E+001 -6.07260000E+000 0.00000000E+000
-2.89090000E+001 -1.88260000E+000 0.00000000E+000
-2.84790000E+001 -2.57770000E+000 0.00000000E+000
-2.66950000E+001 -4.91570000E+000 0.00000000E+000
-2.82730000E+001 -3.34480000E+000 0.00000000E+000
-2.38100000E+001 -8.55530000E+000 0.00000000E+000
-2.47680000E+001 -7.71360000E+000 0.00000000E+000
-2.27180000E+001 -1.00000000E+001 0.00000000E+000
-2.80610000E+001 -4.22150000E+000 0.00000000E+000
-2.89820000E+001 -3.05560000E+000 0.00000000E+000
-2.55740000E+001 -7.50860000E+000 0.00000000E+000
-2.95050000E+001 -2.83060000E+000 0.00000000E+000
-2.90150000E+001 -3.73950000E+000 0.00000000E+000
-2.78570000E+001 -5.20140000E+000 0.00000000E+000
-2.48510000E+001 -8.71730000E+000 0.00000000E+000
-2.66020000E+001 -6.96680000E+000 0.00000000E+000
-2.73090000E+001 -6.28730000E+000 0.00000000E+000
-2.38980000E+001 -1.00000000E+001 0.00000000E+000
-2.62790000E+001 -7.62800000E+000 0.00000000E+000
-2.89580000E+001 -4.66600000E+000 0.00000000E+000
-2.79080000E+001 -6.01690000E+000 0.00000000E+000
-2.58070000E+001 -8.62390000E+000 0.00000000E+000
-2.98750000E+001 -3.88740000E+000 0.00000000E+000
-2.88120000E+001 -5.63550000E+000 0.00000000E+000
-2.50000000E+001 -1.00000000E+001 0.00000000E+000
-2.66600000E+001 -8.40840000E+000 0.00000000E+000
-2.73690000E+001 -7.88040000E+000 0.00000000E+000
-2.85710000E+001 -6.53300000E+000 0.00000000E+000
-2.80430000E+001 -7.21010000E+000 0.00000000E+000
-3.00000000E+001 -5.00000000E+000 0.00000000E+000
-2.61130000E+001 -9.87460000E+000 0.00000000E+000
-2.98750000E+001 -6.11260000E+000 0.00000000E+000
-2.71690000E+001 -9.50480000E+000 0.00000000E+000
-2.95050000E+001 -7.16940000E+000 0.00000000E+000
-2.81170000E+001 -8.90920000E+000 0.00000000E+000
-2.89090000E+001 -8.11740000E+000 0.00000000E+000

CELLS      202     1010
   4         136         132         123         126  
   4         138         136         126         128  
   4         143         138         128         131  
   4         145         143         131         135  
   4         151         145         135         139  
   4         153         151         139         144  
   4         159         153         144         150  
   4         166         159         150         157  
   4         174         166         157         164  
   4         178         174         164         170  
   4         184         178         170         177  
   4         191         184         177         183  
   4         197         191         183         188  
   4         205         197         188         193  
   4         211         205         193         201  
   4         219         211         201         209  
   4         229         219         209         217  
   4         236         229         217         226  
   4         242         236         226         233  
   4         244         242         233         237  
   4         246         244         237         238  
   4         247         246         238         240  
   4         245         247         240         239  
   4         243         245         239         235  
   4         241         243         235         231  
   4         234         241         231         224  
   4         223         234         224         221  
   4         213         223         221         214  
   4         203         213         214         206  
   4         194         203         206         198  
   4         187         194         198         192  
   4         182         187         192         189  
   4         175         182         189         185  
   4         168         175         185         179  
   4         163         168         179         169  
   4         155         163         169         162  
   4         148         155         162         154  
   4         141         148         154         147  
   4           0           1           3           2  
   4          45          53          54          46  
   4         123         116         118         126  
   4           1           4           6           3  
   4          37          45          46          38  
   4         116         109         111         118  
   4           4           7           9           6  
   4          29          37          38          31  
   4          54          58          47          46  
   4         109         103         105         111  
   4           7          10          12           9  
   4          22          29          31          24  
   4          58          60          49          47  
   4         103          97          99         105  
   4          10          15          17          12  
   4          15          22          24          17  
   4          60          62          52          49  
   4          97          90          93          99  
   4          62          67          55          52  
   4          90          84          87          93  
   4          67          68          61          55  
   4          84          78          80          87  
   4          68          73          65          61  
   4          78          72          76          80  
   4          73          77          71          65  
   4          72          66          70          76  
   4          77          81          74          71  
   4          66          59          64          70  
   4          81          85          79          74  
   4          59          50          56          64  
   4          85          91          86          79  
   4          50          42          48          56  
   4          91          95          92          86  
   4          42          36          41          48  
   4          95         101          98          92  
   4          36          30          35          41  
   4         101         106         104          98  
   4         106         112         110         104  
   4           8           5           6           9  
   4          30          23          25          35  
   4          11           8           9          13  
   4          23          16          18          25  
   4          16          11          13          18  
   4         133         141         147         142  
   4         112         115         124         119  
   4         127         133         142         137  
   4         115         121         130         124  
   4         121         127         137         130  
   4           9          12          14          13  
   4         110         112         119         117  
   4          38          46          47          39  
   4          31          38          39          32  
   4          24          31          32          26  
   4          12          17          19          14  
   4          17          24          26          19  
   4         128         126         118         120  
   4         131         128         120         122  
   4         135         131         122         125  
   4         139         135         125         129  
   4         144         139         129         134  
   4         150         144         134         140  
   4         157         150         140         146  
   4         164         157         146         158  
   4         170         164         158         165  
   4         177         170         165         172  
   4         183         177         172         176  
   4         188         183         176         181  
   4         193         188         181         186  
   4         201         193         186         195  
   4         209         201         195         204  
   4         217         209         204         207  
   4         226         217         207         218  
   4         233         226         218         222  
   4         237         233         222         230  
   4         238         237         230         227  
   4         240         238         227         228  
   4         239         240         228         232  
   4         235         239         232         225  
   4         231         235         225         220  
   4         224         231         220         216  
   4         214         221         224         216  
   4         206         214         216         208  
   4         198         206         208         202  
   4         192         198         202         200  
   4         189         192         200         199  
   4         185         189         199         196  
   4         179         185         196         190  
   4         169         179         190         180  
   4         162         169         180         171  
   4         154         162         171         161  
   4         147         154         161         152  
   4         142         147         152         149  
   4         137         142         149         146  
   4         137         146         140         130  
   4         130         140         134         124  
   4         124         134         129         119  
   4         119         129         125         117  
   4         118         111         113         120  
   4         111         105         107         113  
   4         105          99         100         107  
   4          99          93          94         100  
   4          93          87          88          94  
   4          87          80          83          88  
   4          80          76          82          83  
   4          76          70          75          82  
   4          70          64          69          75  
   4          64          56          63          69  
   4          56          48          57          63  
   4          18          13          14          20  
   4          25          18          20          27  
   4          47          49          40          39  
   4          49          52          43          40  
   4          52          55          44          43  
   4          55          61          51          44  
   4          61          65          57          51  
   4          57          65          71          63  
   4          57          48          41          51  
   4          63          71          74          69  
   4          69          74          79          75  
   4          75          79          86          82  
   4          41          35          44          51  
   4          35          25          27          34  
   4         104         110         108         102  
   4          98         104         102          96  
   4         100         102         108         107  
   4          92          98          96          89  
   4          86          92          89          82  
   4          83          82          89          88  
   4          88          89          96          94  
   4         125         122         114         117  
   4         122         120         113         114  
   4         113         107         108         114  
   4         117         114         108         110  
   4         158         146         149         156  
   4         165         158         156         160  
   4         172         165         160         167  
   4         176         172         167         173  
   4         181         176         173         171  
   4         186         181         171         180  
   4         195         186         180         190  
   4         204         195         190         207  
   4         171         173         167         161  
   4         161         167         160         152  
   4         152         160         156         149  
   4          32          39          40          33  
   4          33          40          43          34  
   4          26          32          33          28  
   4          33          34          27          28  
   4          19          26          28          21  
   4          19          21          20          14  
   4          28          27          20          21  
   4          34          43          44          35  
   4         190         196         212         207  
   4         218         207         212         222  
   4         230         222         212         227  
   4         225         232         228         215  
   4         212         215         228         227  
   4         220         225         215         210  
   4         212         196         199         215  
   4         215         199         200         210  
   4         200         202         208         210  
   4         210         208         216         220  
   4          94          96         102         100  
   4           2           3           6           5  

CELL_TYPES      202
    9     9     9     9     9     9     9     9     9     9     9     9     9     9     9     9     9     9     9     9     9     9     9     9     9     9     9     9     9     9     9     9     9     9     9     9     9     9     9     9     9     9     9     9     9     9     9     9     9     9     9     9     9     9     9     9     9     9     9     9     9     9     9     9     9     9     9     9     9     9     9     9     9     9     9     9     9     9     9     9     9     9     9     9     9     9     9     9     9     9     9     9     9     9     9     9     9     9     9     9     9     9     9     9     9     9     9     9     9     9     9     9     9     9     9     9     9     9     9     9     9     9     9     9     9     9     9     9     9     9     9     9     9     9     9     9     9     9     9     9     9     9     9     9     9     9     9     9     9     9     9     9     9     9     9     9     9     9     9     9     9     9     9     9     9     9     9     9     9     9     9     9     9     9     9     9     9     9     9     9     9     9     9     9     9     9     9     9     9     9     9     9     9     9     9     9     9     9     9     9     9     9 
POINT_DATA      248
SCALARS Ux float
LOOKUP_TABLE default
1.00000000E+000
9.98760594E-001
1.00000000E+000
9.98644543E-001
9.93925460E-001
1.00000000E+000
9.96605947E-001
9.87548304E-001
1.00000000E+000
9.89574138E-001
9.79972757E-001
1.00000000E+000
9.79433051E-001
9.89803785E-001
9.77305571E-001
9.70243343E-001
1.00000000E+000
9.68330404E-001
9.85227272E-001
9.65399411E-001
9.74717178E-001
9.65472578E-001
9.59591667E-001
1.00000000E+000
9.57886147E-001
9.76210705E-001
9.56245984E-001
9.62834299E-001
9.57184866E-001
9.49836606E-001
1.00000000E+000
9.48562537E-001
9.45806614E-001
9.42330534E-001
9.40426944E-001
9.43282765E-001
9.10543963E-001
9.42115146E-001
9.40174420E-001
9.37920164E-001
9.29729819E-001
9.11177085E-001
8.54269289E-001
9.22020921E-001
9.08084017E-001
9.36546225E-001
9.35357402E-001
9.26131314E-001
8.40475431E-001
9.18776793E-001
8.04928927E-001
8.61619059E-001
9.04916782E-001
9.34815763E-001
9.29260144E-001
8.83775505E-001
8.02146225E-001
8.37792913E-001
9.23652617E-001
7.62956096E-001
9.12596703E-001
8.59096186E-001
8.96683149E-001
7.96275207E-001
7.59661209E-001
8.30899288E-001
7.23495079E-001
8.76057013E-001
8.51036513E-001
7.55463987E-001
7.18659368E-001
7.91509617E-001
6.85255261E-001
8.21015954E-001
7.51908376E-001
7.10661640E-001
6.78875792E-001
7.87283300E-001
6.46418557E-001
7.10952265E-001
6.44051859E-001
7.49905615E-001
6.67396423E-001
6.38816540E-001
6.08229802E-001
7.09971792E-001
6.57240705E-001
6.08119753E-001
6.08942619E-001
6.14299803E-001
5.74058836E-001
6.70631640E-001
6.21759741E-001
5.74405510E-001
5.72835251E-001
6.28331427E-001
5.74443403E-001
5.44708622E-001
5.76996949E-001
5.43253331E-001
5.39221408E-001
5.84960026E-001
5.33740614E-001
5.19863649E-001
5.30205205E-001
5.17606456E-001
5.35225057E-001
5.08872401E-001
5.04612178E-001
5.00091063E-001
4.84823574E-001
4.96338237E-001
4.71005544E-001
4.93948254E-001
4.70391515E-001
4.02622408E-001
4.84345116E-001
4.66126183E-001
4.83785982E-001
4.30880762E-001
4.65737151E-001
3.49933988E-001
4.57746775E-001
4.75580086E-001
3.93518347E-001
4.38965089E-001
4.65393969E-001
3.03954807E-001
4.59068010E-001
4.16100650E-001
3.45549916E-001
4.45005737E-001
4.65677451E-001
2.59663781E-001
3.81278999E-001
4.27325855E-001
4.63112070E-001
2.94455328E-001
4.53851180E-001
4.03694643E-001
3.40858715E-001
2.16185951E-001
2.58326911E-001
4.40601990E-001
3.75287823E-001
4.22569442E-001
2.92225956E-001
2.19534692E-001
1.75413295E-001
2.53956789E-001
3.42050178E-001
4.00464460E-001
2.22171846E-001
3.74603435E-001
1.82747872E-001
1.38612518E-001
2.45229249E-001
3.06099564E-001
2.57606717E-001
3.45956600E-001
2.25853504E-001
1.91156389E-001
1.46592317E-001
1.05465612E-001
2.72824097E-001
2.30683601E-001
3.15082609E-001
1.99258150E-001
7.42435907E-002
1.09897677E-001
2.39617736E-001
1.59212635E-001
2.03787848E-001
1.77227313E-001
2.81771483E-001
4.21235385E-002
1.76420545E-001
2.08425288E-001
2.47103774E-001
7.70109136E-002
1.16564850E-001
1.49913306E-001
8.32667268E-017
1.78776705E-001
2.13076241E-001
4.67926393E-002
1.20043964E-001
6.93889390E-017
1.50342427E-001
2.75806068E-002
6.80038997E-002
1.81012555E-001
1.32464163E-002
1.22870362E-001
3.72965547E-017
9.32479111E-002
4.52617525E-002
1.51364482E-001
7.34232637E-003
2.52076732E-002
1.63409682E-002
9.72228021E-002
1.15443540E-002
4.55364912E-017
7.62760514E-002
1.23957648E-001
4.86440804E-003
5.19339647E-002
8.58930277E-003
7.17051295E-002
1.27420572E-002
9.72148003E-002
3.00941166E-002
4.77048956E-017
2.82196682E-003
2.14414267E-002
4.11079975E-003
4.88902603E-002
3.65399087E-002
6.96314179E-002
1.01126788E-002
1.65371403E-003
2.26346521E-002
6.24500451E-017
3.10850299E-003
1.00369770E-002
2.91104327E-002
1.61531373E-002
1.23524108E-002
3.98028371E-002
1.76135085E-002
4.16137226E-003
9.09291974E-003
1.52071009E-002
1.04083409E-017
4.80217818E-003
6.07153217E-018
9.45723795E-003
7.67478396E-003
5.07996687E-003
6.26943735E-003
3.12250226E-017
-1.21430643E-017
1.73472348E-017
3.64291930E-017
0.00000000E+000
-2.42861287E-017
-0.00000000E+000
